LAMMPS (3 Mar 2020)
OMP_NUM_THREADS environment is not set. Defaulting to 1 thread. (../comm.cpp:94)
  using 1 OpenMP thread(s) per MPI task
#################################
#two psrts have to be corrected
#Vacancy >> type : Fe Fe Fe Fe
#Cu      >> type : Fe Fe Fe Fe Cu
#################################

####
#variable nvt_temp      equal 0.1                     # Temperature
#variable npt_temp      equal 0.1
####
#系の基本状態を定める。詳細はLAMMPSのサイトを参照

variable press        equal 1.01325                    # Atomic Mass

units       metal
atom_style  atomic
#xyz方向すべて周期的境界条件にしている。x方向のみ真空領域を作り非周期性を出している
boundary p p p

#計算量に問題がないのなら0.001[ps]にするのが望ましい。
#timestep    0.001
timestep    0.01
read_data   ./Fe.lat
  orthogonal box = (0 0 0) to (885.15 57.1065 57.1065)
  4 by 1 by 1 MPI processor grid
  reading atoms ...
  243200 atoms
  read_data CPU = 0.201318 secs

#ポテンシャルファイルからポテンシャルを与えている。
pair_style  eam/alloy
pair_coeff  * * ./FeCuNi.eam.alloy Fe Fe Fe Fe Fe
#pair_coeff  * * ./new_potential/FeCuNi.eam.alloy Fe Fe Fe Fe Cu
#mass        *4 ${mass}
#mass        5 58.454 correct value!!!

#原子グループに名前を与えている。
group source type 2
800 atoms in group source
group detector type 3
800 atoms in group detector
group edge type 5
800 atoms in group edge

#欲しい情報に記号を割り当てファイル出力させている。
variable s equal xcm(source,x)
variable d equal xcm(detector,x)
variable t equal temp
variable v equal vol
variable e equal etotal
variable i equal time
variable FIG string iranai
#

#nveで系を設定し粒子をminimizeで沈静化させている。minimizeが甘いと超音波信号が不規則に揺れることがある。
fix 1 all nve
thermo 1
#thermo_style custom time v_sox v_dex temp vol etotal v_FIG
#
fix extra all print 1 "$i $s $d $t $v $e" file outp.txt
#
#
minimize 1.0e-18 1.0e-18 100000 100000
WARNING: Using 'neigh_modify every 1 delay 0 check yes' setting during minimization (../min.cpp:190)
Neighbor list info ...
  update every 1 steps, delay 0 steps, check yes
  max neighbors/atom: 2000, page size: 100000
  master list distance cutoff = 7.6
  ghost atom cutoff = 7.6
  binsize = 3.8, bins = 233 16 16
  1 neighbor lists, perpetual/occasional/extra = 1 0 0
  (1) pair eam/alloy, perpetual
      attributes: half, newton on
      pair build: half/bin/atomonly/newton
      stencil: half/bin/3d/newton
      bin: standard
Per MPI rank memory allocation (min/avg/max) = 49.23 | 49.9 | 50.57 Mbytes
Step Temp E_pair E_mol TotEng Press 
       0            0   -1001847.4            0   -1001847.4   -247.29151 
       1            0   -1001849.3            0   -1001849.3   -289.78417 
       2            0   -1001849.4            0   -1001849.4   -299.00721 
       3            0   -1001849.5            0   -1001849.5   -295.54312 
       4            0   -1001849.5            0   -1001849.5   -297.55561 
       5            0   -1001849.5            0   -1001849.5   -300.43233 
       6            0   -1001849.5            0   -1001849.5   -301.44779 
       7            0   -1001849.5            0   -1001849.5   -301.94138 
       8            0   -1001849.5            0   -1001849.5   -302.35004 
       9            0   -1001849.5            0   -1001849.5   -302.87134 
      10            0   -1001849.5            0   -1001849.5   -303.16605 
      11            0   -1001849.5            0   -1001849.5   -303.36956 
      12            0   -1001849.5            0   -1001849.5   -303.55067 
      13            0   -1001849.5            0   -1001849.5   -303.75796 
      14            0   -1001849.5            0   -1001849.5   -303.90218 
      15            0   -1001849.5            0   -1001849.5   -304.00839 
      16            0   -1001849.5            0   -1001849.5   -304.11187 
      17            0   -1001849.5            0   -1001849.5   -304.22246 
      18            0   -1001849.5            0   -1001849.5   -304.30683 
      19            0   -1001849.5            0   -1001849.5   -304.37324 
      20            0   -1001849.5            0   -1001849.5   -304.37324 
Loop time of 6.75016 on 4 procs for 20 steps with 243200 atoms

100.0% CPU use with 4 MPI tasks x 1 OpenMP threads

Minimization stats:
  Stopping criterion = linesearch alpha is zero
  Energy initial, next-to-last, final = 
        -1001847.41169     -1001849.45766     -1001849.45766
  Force two-norm initial, final = 7.1081 0.00462235
  Force max component initial, final = 0.198269 8.17127e-05
  Final line search alpha, max atom move = 0.000488281 3.98988e-08
  Iterations, force evaluations = 20 61

MPI task timing breakdown:
Section |  min time  |  avg time  |  max time  |%varavg| %total
---------------------------------------------------------------
Pair    | 6.1342     | 6.4452     | 6.6168     |   7.7 | 95.48
Neigh   | 0          | 0          | 0          |   0.0 |  0.00
Comm    | 0.022503   | 0.19492    | 0.5095     |  44.6 |  2.89
Output  | 0.0046005  | 0.0046118  | 0.0046389  |   0.0 |  0.07
Modify  | 0          | 0          | 0          |   0.0 |  0.00
Other   |            | 0.1054     |            |       |  1.56

Nlocal:    60800 ave 62000 max 59600 min
Histogram: 2 0 0 0 0 0 0 0 0 2
Nghost:    43436.2 ave 45983 max 40577 min
Histogram: 1 1 0 0 0 0 0 0 0 2
Neighs:    5.0902e+06 ave 5.20958e+06 max 4.96768e+06 min
Histogram: 2 0 0 0 0 0 0 0 0 2

Total # of neighbors = 20360800
Ave neighs/atom = 83.7204
Neighbor list builds = 0
Dangerous builds = 0
#

#スナップショットが欲しかったらここのインデントを解除する
###dump 0 all cfg 10 all.*.cfg mass type xs ys zs id
###dump_modify 0 element Fe Fe Fe Fe
#dump_modify 0 element Fe Fe Fe Fe Cu


#系の右恥の原子を固定する
#fix 9 edge recenter INIT INIT INIT

############################################################
#variable A equal .10
#variable T equal 2.0
#variable omega equal 2.0*PI/$T
##j equal x , k equal v


### 完全な波の導入
fix 2 source move wiggle 0.01 0.0 0.0 2.0
#fix 2 source move wiggle 0.1 0.0 0.0 2.0
##same
#variable j equal swiggle(0.0,$A,$T)
#variable k equal v_omega*($A-cwiggle(0.0,$A,$T))
#fix 2 source move variable v_j NULL NULL v_k NULL NULL


### 部分波の導入
###1d
#variable j equal v_A*v_omega*v_i
#variable k equal v_A*v_omega
#fix 2 source move variable v_j NULL NULL v_k NULL NULL

###2d
#variable j equal v_A*(v_omega^2)*(v_i^2)/2
#variable k equal v_A*(v_omega^2)*v_i
#fix 2 source move variable v_j NULL NULL v_k NULL NULL


#時間発展をするところ
run 800
WARNING: One or more atoms are time integrated more than once (../modify.cpp:289)
0 9.2779727610813 548.936038999994 0 2886608.40873623 -1001849.45765932
Per MPI rank memory allocation (min/avg/max) = 44 | 44.67 | 45.34 Mbytes
Step Temp E_pair E_mol TotEng Press 
      20            0   -1001849.5            0   -1001849.5   -304.37324 
0.01 9.27828686867208 548.936038999994 6.88444655267049e-05 2886608.40873623 -1001849.45537179
      21 6.8844466e-05   -1001849.5            0   -1001849.5   -303.73673 
0.02 9.27860066627657 548.936038999994 6.62527450822016e-05 2886608.40873623 -1001849.45512244
      22 6.6252745e-05   -1001849.5            0   -1001849.5    -303.1027 
0.03 9.27891384421446 548.936038999995 6.68520902921964e-05 2886608.40873623 -1001849.45464703
      23 6.685209e-05   -1001849.5            0   -1001849.5   -302.47114 
0.04 9.27922609341691 548.936038999993 7.23086864733537e-05 2886608.40873623 -1001849.45398994
      24 7.2308686e-05   -1001849.5            0   -1001849.5   -301.84275 
0.05 9.27953710573167 548.936038999994 8.29035511922564e-05 2886608.40873623 -1001849.45319658
      25 8.2903551e-05   -1001849.5            0   -1001849.5   -301.21811 
0.06 9.27984657422713 548.936038999994 9.73313268358665e-05 2886608.40873623 -1001849.45232235
      26 9.7331327e-05   -1001849.5            0   -1001849.5   -300.59773 
0.07 9.28015419349525 548.936038999994 0.000113415877068851 2886608.40873623 -1001849.45141155
      27 0.00011341588   -1001849.5            0   -1001849.5   -299.98199 
0.08 9.28045965995293 548.936038999995 0.000129180639454659 2886608.40873623 -1001849.45050103
      28 0.00012918064   -1001849.5            0   -1001849.5   -299.37126 
0.09 9.28076267214167 548.936038999995 0.000143564987951081 2886608.40873623 -1001849.44962211
      29 0.00014356499   -1001849.5            0   -1001849.4   -298.76583 
0.1 9.28106293102505 548.936038999994 0.000156445852964259 2886608.40873623 -1001849.44878772
      30 0.00015644585   -1001849.5            0   -1001849.4   -298.16604 
0.11 9.28136014028372 548.936038999994 0.000168162936054585 2886608.40873623 -1001849.44800988
      31 0.00016816294   -1001849.5            0   -1001849.4   -297.57228 
0.12 9.28165400660812 548.936038999994 0.000179029980288408 2886608.40873623 -1001849.4472796
      32 0.00017902998   -1001849.5            0   -1001849.4   -296.98508 
0.13 9.28194423998762 548.936038999995 0.000189177765294779 2886608.40873623 -1001849.44658321
      33 0.00018917777   -1001849.5            0   -1001849.4   -296.40506 
0.14 9.28223055399693 548.936038999995 0.000198706061810361 2886608.40873623 -1001849.44591144
      34 0.00019870606   -1001849.5            0   -1001849.4   -295.83294 
0.15 9.28251266607869 548.936038999994 0.000207863231346522 2886608.40873623 -1001849.44524967
      35 0.00020786323   -1001849.5            0   -1001849.4   -295.26948 
0.16 9.28279029782231 548.936038999994 0.000217016225248752 2886608.40873623 -1001849.44459851
      36 0.00021701623   -1001849.5            0   -1001849.4   -294.71542 
0.17 9.28306317523879 548.936038999994 0.000226426317934588 2886608.40873623 -1001849.44395708
      37 0.00022642632   -1001849.5            0   -1001849.4   -294.17147 
0.18 9.28333102903108 548.936038999995 0.00023604791105155 2886608.40873623 -1001849.44332277
      38 0.00023604791   -1001849.5            0   -1001849.4   -293.63828 
0.19 9.28359359485978 548.936038999994 0.000245542455135555 2886608.40873623 -1001849.4427113
      39 0.00024554246   -1001849.5            0   -1001849.4   -293.11641 
0.2 9.2838506136042 548.936038999994 0.000254497046092975 2886608.40873623 -1001849.44212055
      40 0.00025449705   -1001849.5            0   -1001849.4   -292.60632 
0.21 9.28410183161781 548.936038999994 0.000262661238885787 2886608.40873623 -1001849.44156391
      41 0.00026266124   -1001849.4            0   -1001849.4   -292.10839 
0.22 9.28434700097876 548.936038999993 0.000270021999421261 2886608.40873623 -1001849.4410463
      42  0.000270022   -1001849.4            0   -1001849.4   -291.62295 
0.23 9.28458587973451 548.936038999995 0.000276698595567142 2886608.40873623 -1001849.44056161
      43 0.0002766986   -1001849.4            0   -1001849.4    -291.1503 
0.24 9.28481823214056 548.936038999995 0.000282792452216273 2886608.40873623 -1001849.44011773
      44 0.00028279245   -1001849.4            0   -1001849.4   -290.69076 
0.25 9.28504382889314 548.936038999994 0.00028833524602066 2886608.40873623 -1001849.43970214
      45 0.00028833525   -1001849.4            0   -1001849.4    -290.2447 
0.26 9.28526244735549 548.936038999994 0.000293354687745518 2886608.40873623 -1001849.43931465
      46 0.00029335469   -1001849.4            0   -1001849.4   -289.81253 
0.27 9.28547387177758 548.936038999994 0.000297954902686038 2886608.40873623 -1001849.4389535
      47 0.0002979549   -1001849.4            0   -1001849.4   -289.39473 
0.28 9.28567789350903 548.936038999994 0.000302303939411079 2886608.40873623 -1001849.43861066
      48 0.00030230394   -1001849.4            0   -1001849.4   -288.99182 
0.29 9.28587431120505 548.936038999995 0.000306527113224604 2886608.40873623 -1001849.43829215
      49 0.00030652711   -1001849.4            0   -1001849.4   -288.60433 
0.3 9.28606293102502 548.936038999994 0.000310608265501603 2886608.40873623 -1001849.43799061
      50 0.00031060827   -1001849.4            0   -1001849.4   -288.23279 
0.31 9.28624356682402 548.936038999994 0.000314399296338575 2886608.40873623 -1001849.43771449
      51 0.0003143993   -1001849.4            0   -1001849.4   -287.87773 
0.32 9.2864160403363 548.936038999994 0.000317737356663494 2886608.40873623 -1001849.43746558
      52 0.00031773736   -1001849.4            0   -1001849.4    -287.5396 
0.33 9.28658018135133 548.936038999994 0.000320570022360182 2886608.40873623 -1001849.43724018
      53 0.00032057002   -1001849.4            0   -1001849.4   -287.21879 
0.34 9.28673582788172 548.936038999995 0.000322985419811455 2886608.40873623 -1001849.43704414
      54 0.00032298542   -1001849.4            0   -1001849.4   -286.91563 
0.35 9.28688282632316 548.936038999994 0.000325134365138088 2886608.40873623 -1001849.4368709
      55 0.00032513437   -1001849.4            0   -1001849.4   -286.63037 
0.36 9.28702103160594 548.936038999994 0.000327125319967009 2886608.40873623 -1001849.43672264
      56 0.00032712532   -1001849.4            0   -1001849.4   -286.36322 
0.37 9.28715030733813 548.936038999994 0.000328983939163428 2886608.40873623 -1001849.43659823
      57 0.00032898394   -1001849.4            0   -1001849.4   -286.11436 
0.38 9.28727052594015 548.936038999994 0.000330695341932265 2886608.40873623 -1001849.43649241
      58 0.00033069534   -1001849.4            0   -1001849.4   -285.88395 
0.39 9.28738156877081 548.936038999994 0.000332266788487499 2886608.40873623 -1001849.43640254
      59 0.00033226679   -1001849.4            0   -1001849.4   -285.67212 
0.4 9.28748332624423 548.936038999994 0.000333738507403062 2886608.40873623 -1001849.43632481
      60 0.00033373851   -1001849.4            0   -1001849.4   -285.47905 
0.41 9.28757569793806 548.936038999994 0.000335134007741331 2886608.40873623 -1001849.43626027
      61 0.00033513401   -1001849.4            0   -1001849.4   -285.30487 
0.42 9.28765859269256 548.936038999994 0.000336409540129697 2886608.40873623 -1001849.43621015
      62 0.00033640954   -1001849.4            0   -1001849.4   -285.14977 
0.43 9.28773192870069 548.936038999994 0.000337466265623568 2886608.40873623 -1001849.436172
      63 0.00033746627   -1001849.4            0   -1001849.4   -285.01392 
0.44 9.28779563358857 548.936038999994 0.000338226047102386 2886608.40873623 -1001849.43614284
      64 0.00033822605   -1001849.4            0   -1001849.4   -284.89751 
0.45 9.28784964448723 548.936038999994 0.000338706335554157 2886608.40873623 -1001849.43612249
      65 0.00033870634   -1001849.4            0   -1001849.4   -284.80072 
0.46 9.28789390809442 548.936038999994 0.000339025978413069 2886608.40873623 -1001849.4361086
      66 0.00033902598   -1001849.4            0   -1001849.4   -284.72372 
0.47 9.28792838072731 548.936038999993 0.000339334740947243 2886608.40873623 -1001849.43610315
      67 0.00033933474   -1001849.4            0   -1001849.4   -284.66666 
0.48 9.28795302836558 548.936038999994 0.000339725914661216 2886608.40873623 -1001849.4361014
      68 0.00033972591   -1001849.4            0   -1001849.4   -284.62968 
0.49 9.28796782668494 548.936038999994 0.000340201992994835 2886608.40873623 -1001849.43610218
      69 0.00034020199   -1001849.4            0   -1001849.4   -284.61287 
0.5 9.28797276108127 548.936038999994 0.00034071210378743 2886608.40873623 -1001849.43610164
      70 0.0003407121   -1001849.4            0   -1001849.4   -284.61633 
0.51 9.28796782668494 548.936038999994 0.000341218213498953 2886608.40873623 -1001849.43609757
      71 0.00034121821   -1001849.4            0   -1001849.4   -284.64008 
0.52 9.28795302836558 548.936038999994 0.00034173136924126 2886608.40873623 -1001849.43609383
      72 0.00034173137   -1001849.4            0   -1001849.4   -284.68411 
0.53 9.28792838072731 548.936038999994 0.000342297520383769 2886608.40873623 -1001849.43608432
      73 0.00034229752   -1001849.4            0   -1001849.4   -284.74837 
0.54 9.28789390809442 548.936038999994 0.000342961802708905 2886608.40873623 -1001849.43606907
      74 0.0003429618   -1001849.4            0   -1001849.4   -284.83274 
0.55 9.28784964448723 548.936038999994 0.000343752623392082 2886608.40873623 -1001849.43604396
      75 0.00034375262   -1001849.4            0   -1001849.4   -284.93708 
0.56 9.28779563358857 548.936038999994 0.000344696187544827 2886608.40873623 -1001849.4360087
      76 0.00034469619   -1001849.4            0   -1001849.4   -285.06121 
0.57 9.28773192870069 548.936038999993 0.000345835485696521 2886608.40873623 -1001849.43596326
      77 0.00034583549   -1001849.4            0   -1001849.4   -285.20493 
0.58 9.28765859269256 548.936038999994 0.000347224511705813 2886608.40873623 -1001849.43590454
      78 0.00034722451   -1001849.4            0   -1001849.4   -285.36802 
0.59 9.28757569793806 548.936038999993 0.000348899586408485 2886608.40873623 -1001849.43583069
      79 0.00034889959   -1001849.4            0   -1001849.4   -285.55027 
0.6 9.28748332624423 548.936038999995 0.00035085913433903 2886608.40873623 -1001849.43573824
      80 0.00035085913   -1001849.4            0   -1001849.4   -285.75148 
0.61 9.28738156877081 548.936038999993 0.000353077726345324 2886608.40873623 -1001849.43562679
      81 0.00035307773   -1001849.4            0   -1001849.4   -285.97145 
0.62 9.28727052594015 548.936038999994 0.000355544498138423 2886608.40873623 -1001849.43549852
      82 0.0003555445   -1001849.4            0   -1001849.4      -286.21 
0.63 9.28715030733813 548.936038999994 0.000358288103789656 2886608.40873623 -1001849.43535216
      83 0.0003582881   -1001849.4            0   -1001849.4   -286.46697 
0.64 9.28702103160594 548.936038999993 0.000361361249965914 2886608.40873623 -1001849.43518466
      84 0.00036136125   -1001849.4            0   -1001849.4   -286.74215 
0.65 9.28688282632316 548.936038999994 0.000364798628743153 2886608.40873623 -1001849.43499555
      85 0.00036479863   -1001849.4            0   -1001849.4   -287.03532 
0.66 9.28673582788172 548.936038999994 0.000368591627573595 2886608.40873623 -1001849.43478346
      86 0.00036859163   -1001849.4            0   -1001849.4   -287.34623 
0.67 9.28658018135133 548.936038999994 0.000372709737572194 2886608.40873623 -1001849.434549
      87 0.00037270974   -1001849.4            0   -1001849.4   -287.67455 
0.68 9.2864160403363 548.936038999993 0.000377152813942002 2886608.40873623 -1001849.43429091
      88 0.00037715281   -1001849.4            0   -1001849.4   -288.01986 
0.69 9.28624356682402 548.936038999994 0.0003819845535018 2886608.40873623 -1001849.43400461
      89 0.00038198455   -1001849.4            0   -1001849.4    -288.3817 
0.7 9.28606293102502 548.936038999994 0.000387310467026781 2886608.40873623 -1001849.43368978
      90 0.00038731047   -1001849.4            0   -1001849.4   -288.75949 
0.71 9.28587431120505 548.936038999993 0.000393213416967307 2886608.40873623 -1001849.43334314
      91 0.00039321342   -1001849.4            0   -1001849.4   -289.15262 
0.72 9.28567789350903 548.936038999994 0.000399700218696241 2886608.40873623 -1001849.43296865
      92 0.00039970022   -1001849.4            0   -1001849.4   -289.56043 
0.73 9.28547387177758 548.936038999994 0.000406705174492906 2886608.40873623 -1001849.4325648
      93 0.00040670517   -1001849.4            0   -1001849.4   -289.98225 
0.74 9.28526244735549 548.936038999993 0.00041414688912056 2886608.40873623 -1001849.43213232
      94 0.00041414689   -1001849.4            0   -1001849.4   -290.41742 
0.75 9.28504382889314 548.936038999994 0.000421988789746239 2886608.40873623 -1001849.43167005
      95 0.00042198879   -1001849.4            0   -1001849.4   -290.86529 
0.76 9.28481823214056 548.936038999994 0.000430253280422372 2886608.40873623 -1001849.43117906
      96 0.00043025328   -1001849.4            0   -1001849.4   -291.32528 
0.77 9.28458587973451 548.936038999993 0.000438983504150175 2886608.40873623 -1001849.43066106
      97 0.0004389835   -1001849.4            0   -1001849.4   -291.79687 
0.78 9.28434700097876 548.936038999994 0.000448193388712592 2886608.40873623 -1001849.43011793
      98 0.00044819339   -1001849.4            0   -1001849.4   -292.27961 
0.79 9.28410183161781 548.936038999994 0.000457853257121214 2886608.40873623 -1001849.42954863
      99 0.00045785326   -1001849.4            0   -1001849.4   -292.77315 
0.8 9.2838506136042 548.936038999994 0.000467920886736961 2886608.40873623 -1001849.42895096
     100 0.00046792089   -1001849.4            0   -1001849.4   -293.27717 
0.81 9.28359359485978 548.936038999994 0.000478383567591918 2886608.40873623 -1001849.42832418
     101 0.00047838357   -1001849.4            0   -1001849.4   -293.79143 
0.82 9.28333102903108 548.936038999993 0.000489267244401149 2886608.40873623 -1001849.42767118
     102 0.00048926724   -1001849.4            0   -1001849.4   -294.31574 
0.83 9.28306317523879 548.936038999994 0.000500601578548913 2886608.40873623 -1001849.42699384
     103 0.00050060158   -1001849.4            0   -1001849.4   -294.84992 
0.84 9.28279029782231 548.936038999993 0.000512372332546688 2886608.40873623 -1001849.42629255
     104 0.00051237233   -1001849.4            0   -1001849.4    -295.3938 
0.85 9.28251266607869 548.936038999994 0.000524504778368752 2886608.40873623 -1001849.42556855
     105 0.00052450478   -1001849.4            0   -1001849.4   -295.94721 
0.86 9.28223055399693 548.936038999994 0.000536893739855416 2886608.40873623 -1001849.4248234
     106 0.00053689374   -1001849.4            0   -1001849.4   -296.50996 
0.87 9.28194423998762 548.936038999994 0.000549454973111489 2886608.40873623 -1001849.42406066
     107 0.00054945497   -1001849.4            0   -1001849.4   -297.08178 
0.88 9.28165400660812 548.936038999994 0.000562156467639944 2886608.40873623 -1001849.42328414
     108 0.00056215647   -1001849.4            0   -1001849.4   -297.66237 
0.89 9.28136014028372 548.936038999994 0.000575009375115206 2886608.40873623 -1001849.42249387
     109 0.00057500938   -1001849.4            0   -1001849.4   -298.25134 
0.9 9.28106293102505 548.936038999994 0.000588034424022007 2886608.40873623 -1001849.4216893
     110 0.00058803442   -1001849.4            0   -1001849.4   -298.84819 
0.91 9.28076267214167 548.936038999994 0.000601237077405273 2886608.40873623 -1001849.42087114
     111 0.00060123708   -1001849.4            0   -1001849.4   -299.45235 
0.92 9.28045965995293 548.936038999994 0.000614609934801323 2886608.40873623 -1001849.42004104
     112 0.00061460993   -1001849.4            0   -1001849.4   -300.06312 
0.93 9.28015419349525 548.936038999994 0.000628151392557656 2886608.40873623 -1001849.41919744
     113 0.00062815139   -1001849.4            0   -1001849.4   -300.67972 
0.94 9.27984657422713 548.936038999993 0.00064187458279462 2886608.40873623 -1001849.41834223
     114 0.00064187458   -1001849.4            0   -1001849.4   -301.30129 
0.95 9.27953710573167 548.936038999994 0.000655792805508803 2886608.40873623 -1001849.41747545
     115 0.00065579281   -1001849.4            0   -1001849.4   -301.92688 
0.96 9.27922609341691 548.936038999994 0.000669892883505106 2886608.40873623 -1001849.41659856
     116 0.00066989288   -1001849.4            0   -1001849.4   -302.55555 
0.97 9.27891384421446 548.936038999994 0.000684120885553878 2886608.40873623 -1001849.41571431
     117 0.00068412089   -1001849.4            0   -1001849.4   -303.18631 
0.98 9.27860066627657 548.936038999994 0.000698393947540026 2886608.40873623 -1001849.41482812
     118 0.00069839395   -1001849.4            0   -1001849.4   -303.81827 
0.99 9.27828686867208 548.936038999993 0.000712629173332672 2886608.40873623 -1001849.41394099
     119 0.00071262917   -1001849.4            0   -1001849.4   -304.45055 
1 9.2779727610813 548.936038999994 0.000726767560547527 2886608.40873623 -1001849.41305505
     120 0.00072676756   -1001849.4            0   -1001849.4   -305.08243 
1.01 9.27765865349049 548.936038999994 0.000740778124107637 2886608.40873623 -1001849.41217205
     121 0.00074077812   -1001849.4            0   -1001849.4   -305.71327 
1.02 9.27734485588599 548.936038999994 0.000754645757051052 2886608.40873623 -1001849.41129399
     122 0.00075464576   -1001849.4            0   -1001849.4   -306.34258 
1.03 9.27703167794809 548.936038999994 0.00076835791610871 2886608.40873623 -1001849.41042498
     123 0.00076835792   -1001849.4            0   -1001849.4   -306.96995 
1.04 9.27671942874563 548.936038999994 0.000781900952314089 2886608.40873623 -1001849.40956403
     124 0.00078190095   -1001849.4            0   -1001849.4   -307.59509 
1.05 9.27640841643087 548.936038999994 0.000795263910777753 2886608.40873623 -1001849.40871101
     125 0.00079526391   -1001849.4            0   -1001849.4   -308.21773 
1.06 9.27609894793542 548.936038999993 0.000808440023785715 2886608.40873623 -1001849.40786748
     126 0.00080844002   -1001849.4            0   -1001849.4    -308.8376 
1.07 9.2757913286673 548.936038999994 0.000821420492953939 2886608.40873623 -1001849.40703512
     127 0.00082142049   -1001849.4            0   -1001849.4   -309.45439 
1.08 9.27548586220963 548.936038999994 0.000834185188670573 2886608.40873623 -1001849.40621673
     128 0.00083418519   -1001849.4            0   -1001849.4   -310.06771 
1.09 9.27518285002089 548.936038999993 0.000846699404393069 2886608.40873623 -1001849.40541378
     129 0.0008466994   -1001849.4            0   -1001849.4   -310.67701 
1.1 9.27488259113754 548.936038999994 0.000858920565020481 2886608.40873623 -1001849.40462659
     130 0.00085892057   -1001849.4            0   -1001849.4   -311.28165 
1.11 9.27458538187883 548.936038999994 0.000870809924833198 2886608.40873623 -1001849.40385679
     131 0.00087080992   -1001849.4            0   -1001849.4   -311.88085 
1.12 9.27429151555443 548.936038999994 0.00088234082381361 2886608.40873623 -1001849.40310662
     132 0.00088234082   -1001849.4            0   -1001849.4   -312.47373 
1.13 9.27400128217493 548.936038999994 0.000893499483943367 2886608.40873623 -1001849.40237924
     133 0.00089349948   -1001849.4            0   -1001849.4   -313.05936 
1.14 9.27371496816563 548.936038999994 0.000904280975280517 2886608.40873623 -1001849.40167442
     134 0.00090428098   -1001849.4            0   -1001849.4   -313.63683 
1.15 9.27343285608389 548.936038999994 0.000914685042204632 2886608.40873623 -1001849.40099186
     135 0.00091468504   -1001849.4            0   -1001849.4   -314.20527 
1.16 9.27315522434027 548.936038999994 0.000924713210962612 2886608.40873623 -1001849.40033171
     136 0.00092471321   -1001849.4            0   -1001849.4   -314.76391 
1.17 9.27288234692376 548.936038999994 0.000934365215628242 2886608.40873623 -1001849.39969401
     137 0.00093436522   -1001849.4            0   -1001849.4   -315.31213 
1.18 9.2726144931315 548.936038999994 0.000943633811804602 2886608.40873623 -1001849.39908323
     138 0.00094363381   -1001849.4            0   -1001849.4   -315.84944 
1.19 9.27235192730276 548.936038999993 0.000952501026727016 2886608.40873623 -1001849.39849577
     139 0.00095250103   -1001849.4            0   -1001849.4   -316.37552 
1.2 9.27209490855835 548.936038999993 0.000960940283973798 2886608.40873623 -1001849.39793694
     140 0.00096094028   -1001849.4            0   -1001849.4   -316.89012 
1.21 9.27184369054475 548.936038999994 0.000968924817246811 2886608.40873623 -1001849.39740239
     141 0.00096892482   -1001849.4            0   -1001849.4   -317.39306 
1.22 9.27159852118379 548.936038999994 0.000976436997022545 2886608.40873623 -1001849.39689612
     142  0.000976437   -1001849.4            0   -1001849.4   -317.88418 
1.23 9.27135964242804 548.936038999993 0.000983471997858925 2886608.40873623 -1001849.39642003
     143  0.000983472   -1001849.4            0   -1001849.4   -318.36325 
1.24 9.271127290022 548.936038999994 0.000990034477104556 2886608.40873623 -1001849.39597297
     144 0.00099003448   -1001849.4            0   -1001849.4   -318.82994 
1.25 9.27090169326943 548.936038999994 0.000996133415187117 2886608.40873623 -1001849.39555565
     145 0.00099613342   -1001849.4            0   -1001849.4   -319.28382 
1.26 9.27068307480708 548.936038999994 0.00100178105842479 2886608.40873623 -1001849.3951639
     146 0.0010017811   -1001849.4            0   -1001849.4   -319.72433 
1.27 9.27047165038497 548.936038999994 0.00100699599408179 2886608.40873623 -1001849.3947995
     147  0.001006996   -1001849.4            0   -1001849.4   -320.15081 
1.28 9.27026762865352 548.936038999993 0.00101180420754463 2886608.40873623 -1001849.39446298
     148 0.0010118042   -1001849.4            0   -1001849.4   -320.56253 
1.29 9.27007121095752 548.936038999994 0.00101623275824145 2886608.40873623 -1001849.39415187
     149 0.0010162328   -1001849.4            0   -1001849.4   -320.95879 
1.3 9.26988259113754 548.936038999994 0.00102029849750782 2886608.40873623 -1001849.3938656
     150 0.0010202985   -1001849.4            0   -1001849.4   -321.33891 
1.31 9.26970195533853 548.936038999995 0.00102400117225699 2886608.40873623 -1001849.39360429
     151 0.0010240012   -1001849.4            0   -1001849.4   -321.70234 
1.32 9.26952948182626 548.936038999994 0.0010273284222485 2886608.40873623 -1001849.39336655
     152 0.0010273284   -1001849.4            0   -1001849.4   -322.04865 
1.33 9.26936534081124 548.936038999994 0.00103027024007554 2886608.40873623 -1001849.39315416
     153 0.0010302702   -1001849.4            0   -1001849.4   -322.37756 
1.34 9.26920969428086 548.936038999994 0.00103283172331409 2886608.40873623 -1001849.39296555
     154 0.0010328317   -1001849.4            0   -1001849.4   -322.68893 
1.35 9.26906269583939 548.936038999994 0.00103503428375295 2886608.40873623 -1001849.39280068
     155 0.0010350343   -1001849.4            0   -1001849.4   -322.98271 
1.36 9.26892449055662 548.936038999993 0.00103690609052689 2886608.40873623 -1001849.3926566
     156 0.0010369061   -1001849.4            0   -1001849.4    -323.2589 
1.37 9.26879521482446 548.936038999993 0.00103847220855873 2886608.40873623 -1001849.39253293
     157 0.0010384722   -1001849.4            0   -1001849.4   -323.51752 
1.38 9.26867499622239 548.936038999994 0.00103975406388479 2886608.40873623 -1001849.39242845
     158 0.0010397541   -1001849.4            0   -1001849.4   -323.75849 
1.39 9.26856395339174 548.936038999994 0.00104077736482213 2886608.40873623 -1001849.39234169
     159 0.0010407774   -1001849.4            0   -1001849.4   -323.98168 
1.4 9.26846219591832 548.936038999994 0.0010415781468772 2886608.40873623 -1001849.39227153
     160 0.0010415781   -1001849.4            0   -1001849.4   -324.18683 
1.41 9.26836982422451 548.936038999994 0.00104219807571657 2886608.40873623 -1001849.39221399
     161 0.0010421981   -1001849.4            0   -1001849.4   -324.37358 
1.42 9.26828692946999 548.936038999994 0.00104267140547339 2886608.40873623 -1001849.39216941
     162 0.0010426714   -1001849.4            0   -1001849.4   -324.54151 
1.43 9.26821359346191 548.936038999994 0.00104301568665094 2886608.40873623 -1001849.39213515
     163 0.0010430157   -1001849.4            0   -1001849.4   -324.69018 
1.44 9.26814988857399 548.936038999994 0.0010432361713483 2886608.40873623 -1001849.39211118
     164 0.0010432362   -1001849.4            0   -1001849.4   -324.81918 
1.45 9.26809587767533 548.936038999994 0.00104334129211929 2886608.40873623 -1001849.39209582
     165 0.0010433413   -1001849.4            0   -1001849.4    -324.9282 
1.46 9.26805161406815 548.936038999993 0.00104335574801251 2886608.40873623 -1001849.39208707
     166 0.0010433557   -1001849.4            0   -1001849.4   -325.01704 
1.47 9.26801714143524 548.936038999994 0.00104331956054754 2886608.40873623 -1001849.39208174
     167 0.0010433196   -1001849.4            0   -1001849.4   -325.08562 
1.48 9.26799249379701 548.936038999994 0.00104327457116484 2886608.40873623 -1001849.3920818
     168 0.0010432746   -1001849.4            0   -1001849.4   -325.13404 
1.49 9.26797769547762 548.936038999994 0.00104325155190802 2886608.40873623 -1001849.3920822
     169 0.0010432516   -1001849.4            0   -1001849.4   -325.16246 
1.5 9.26797276108129 548.936038999994 0.00104326989003172 2886608.40873623 -1001849.39208277
     170 0.0010432699   -1001849.4            0   -1001849.4   -325.17111 
1.51 9.26797769547762 548.936038999994 0.00104334891237181 2886608.40873623 -1001849.39208052
     171 0.0010433489   -1001849.4            0   -1001849.4   -325.16023 
1.52 9.26799249379701 548.936038999993 0.00104351822804679 2886608.40873623 -1001849.39207381
     172 0.0010435182   -1001849.4            0   -1001849.4   -325.13002 
1.53 9.26801714143524 548.936038999994 0.001043815731365 2886608.40873623 -1001849.39206207
     173 0.0010438157   -1001849.4            0   -1001849.4   -325.08059 
1.54 9.26805161406815 548.936038999994 0.00104427489067506 2886608.40873623 -1001849.39204356
     174 0.0010442749   -1001849.4            0   -1001849.4   -325.01196 
1.55 9.26809587767533 548.936038999994 0.00104491453268311 2886608.40873623 -1001849.39201527
     175 0.0010449145   -1001849.4            0   -1001849.4   -324.92405 
1.56 9.26814988857399 548.936038999994 0.0010457425818109 2886608.40873623 -1001849.39197772
     176 0.0010457426   -1001849.4            0   -1001849.4   -324.81674 
1.57 9.26821359346191 548.936038999994 0.00104677147973577 2886608.40873623 -1001849.39192683
     177 0.0010467715   -1001849.4            0   -1001849.4   -324.68989 
1.58 9.26828692946999 548.936038999994 0.00104803084628957 2886608.40873623 -1001849.39186257
     178 0.0010480308   -1001849.4            0   -1001849.4    -324.5434 
1.59 9.26836982422451 548.936038999994 0.00104956470398159 2886608.40873623 -1001849.39178327
     179 0.0010495647   -1001849.4            0   -1001849.4   -324.37724 
1.6 9.26846219591832 548.936038999994 0.00105141496932963 2886608.40873623 -1001849.3916876
     180  0.001051415   -1001849.4            0   -1001849.4   -324.19152 
1.61 9.26856395339174 548.936038999994 0.00105360598567863 2886608.40873623 -1001849.39157298
     181  0.001053606   -1001849.4            0   -1001849.4   -323.98647 
1.62 9.26867499622239 548.936038999994 0.00105614378409345 2886608.40873623 -1001849.39143828
     182 0.0010561438   -1001849.4            0   -1001849.4   -323.76244 
1.63 9.26879521482446 548.936038999994 0.00105902954182855 2886608.40873623 -1001849.39128309
     183 0.0010590295   -1001849.4            0   -1001849.4   -323.51986 
1.64 9.26892449055662 548.936038999994 0.00106227334624211 2886608.40873623 -1001849.39110615
     184 0.0010622733   -1001849.4            0   -1001849.4   -323.25921 
1.65 9.26906269583939 548.936038999994 0.00106589497148178 2886608.40873623 -1001849.39090719
     185  0.001065895   -1001849.4            0   -1001849.4   -322.98096 
1.66 9.26920969428086 548.936038999994 0.00106991214072556 2886608.40873623 -1001849.39068361
     186 0.0010699121   -1001849.4            0   -1001849.4   -322.68551 
1.67 9.26936534081124 548.936038999994 0.00107432976922274 2886608.40873623 -1001849.39043646
     187 0.0010743298   -1001849.4            0   -1001849.4    -322.3732 
1.68 9.26952948182626 548.936038999994 0.00107914279417275 2886608.40873623 -1001849.39016414
     188 0.0010791428   -1001849.4            0   -1001849.4   -322.04427 
1.69 9.26970195533853 548.936038999994 0.00108435116360601 2886608.40873623 -1001849.38986864
     189 0.0010843512   -1001849.4            0   -1001849.4   -321.69889 
1.7 9.26988259113754 548.936038999994 0.00108997241918112 2886608.40873623 -1001849.3895449
     190 0.0010899724   -1001849.4            0   -1001849.4   -321.33718 
1.71 9.27007121095752 548.936038999994 0.00109603844211426 2886608.40873623 -1001849.38919433
     191 0.0010960384   -1001849.4            0   -1001849.4   -320.95928 
1.72 9.27026762865352 548.936038999993 0.00110257763118088 2886608.40873623 -1001849.38881517
     192 0.0011025776   -1001849.4            0   -1001849.4   -320.56538 
1.73 9.27047165038497 548.936038999994 0.00110959778549265 2886608.40873623 -1001849.38840777
     193 0.0011095978   -1001849.4            0   -1001849.4   -320.15576 
1.74 9.27068307480708 548.936038999994 0.00111708450689788 2886608.40873623 -1001849.38797289
     194 0.0011170845   -1001849.4            0   -1001849.4   -319.73081 
1.75 9.27090169326943 548.936038999993 0.00112501539839732 2886608.40873623 -1001849.38750923
     195 0.0011250154   -1001849.4            0   -1001849.4   -319.29106 
1.76 9.271127290022 548.936038999994 0.00113337590369586 2886608.40873623 -1001849.38701786
     196 0.0011333759   -1001849.4            0   -1001849.4   -318.83711 
1.77 9.27135964242804 548.936038999994 0.00114216228510144 2886608.40873623 -1001849.38649814
     197 0.0011421623   -1001849.4            0   -1001849.4   -318.36962 
1.78 9.27159852118379 548.936038999994 0.00115137095815334 2886608.40873623 -1001849.38595203
     198  0.001151371   -1001849.4            0   -1001849.4   -317.88927 
1.79 9.27184369054475 548.936038999994 0.00116098730448407 2886608.40873623 -1001849.38538182
     199 0.0011609873   -1001849.4            0   -1001849.4   -317.39667 
1.8 9.27209490855835 548.936038999994 0.00117098726802388 2886608.40873623 -1001849.38478378
     200 0.0011709873   -1001849.4            0   -1001849.4   -316.89238 
1.81 9.27235192730276 548.936038999994 0.00118135141470732 2886608.40873623 -1001849.38416312
     201 0.0011813514   -1001849.4            0   -1001849.4   -316.37688 
1.82 9.2726144931315 548.936038999994 0.00119207748758152 2886608.40873623 -1001849.38351567
     202 0.0011920775   -1001849.4            0   -1001849.4   -315.85056 
1.83 9.27288234692376 548.936038999994 0.00120317771846522 2886608.40873623 -1001849.38284251
     203 0.0012031777   -1001849.4            0   -1001849.4   -315.31374 
1.84 9.27315522434027 548.936038999995 0.00121466137965594 2886608.40873623 -1001849.38214848
     204 0.0012146614   -1001849.4            0   -1001849.4   -314.76675 
1.85 9.27343285608389 548.936038999993 0.00122651739965327 2886608.40873623 -1001849.38143026
     205 0.0012265174   -1001849.4            0   -1001849.4   -314.20994 
1.86 9.27371496816563 548.936038999994 0.00123871218529547 2886608.40873623 -1001849.38069105
     206 0.0012387122   -1001849.4            0   -1001849.4   -313.64376 
1.87 9.27400128217493 548.936038999994 0.0012512036969622 2886608.40873623 -1001849.37992947
     207 0.0012512037   -1001849.4            0   -1001849.4   -313.06872 
1.88 9.27429151555443 548.936038999993 0.00126395804810716 2886608.40873623 -1001849.37915018
     208  0.001263958   -1001849.4            0   -1001849.4   -312.48547 
1.89 9.27458538187883 548.936038999994 0.00127695371572295 2886608.40873623 -1001849.37835342
     209 0.0012769537   -1001849.4            0   -1001849.4   -311.89473 
1.9 9.27488259113754 548.936038999994 0.00129017161891415 2886608.40873623 -1001849.37754059
     210 0.0012901716   -1001849.4            0   -1001849.4   -311.29727 
1.91 9.27518285002089 548.936038999995 0.00130358350977533 2886608.40873623 -1001849.3767164
     211 0.0013035835   -1001849.4            0   -1001849.4   -310.69388 
1.92 9.27548586220963 548.936038999993 0.00131715222700932 2886608.40873623 -1001849.37587854
     212 0.0013171522   -1001849.4            0   -1001849.4   -310.08531 
1.93 9.2757913286673 548.936038999992 0.00133084450906526 2886608.40873623 -1001849.37502816
     213 0.0013308445   -1001849.4            0   -1001849.4   -309.47222 
1.94 9.27609894793542 548.936038999994 0.0013446433556468 2886608.40873623 -1001849.37416956
     214 0.0013446434   -1001849.4            0   -1001849.4   -308.85523 
1.95 9.27640841643087 548.936038999993 0.00135854631296536 2886608.40873623 -1001849.3733015
     215 0.0013585463   -1001849.4            0   -1001849.4   -308.23482 
1.96 9.27671942874563 548.936038999995 0.00137254939125021 2886608.40873623 -1001849.37242836
     216 0.0013725494   -1001849.4            0   -1001849.4   -307.61144 
1.97 9.27703167794809 548.936038999994 0.001386630488887 2886608.40873623 -1001849.37154853
     217 0.0013866305   -1001849.4            0   -1001849.4   -306.98553 
1.98 9.27734485588599 548.936038999993 0.00140074715066299 2886608.40873623 -1001849.37066454
     218 0.0014007472   -1001849.4            0   -1001849.4   -306.35752 
1.99 9.27765865349049 548.936038999994 0.00141485019430464 2886608.40873623 -1001849.36977889
     219 0.0014148502   -1001849.4            0   -1001849.4   -305.72793 
2 9.2779727610813 548.936038999993 0.001428900176594 2886608.40873623 -1001849.36889423
     220 0.0014289002   -1001849.4            0   -1001849.4   -305.09735 
2.01 9.27828686867208 548.936038999994 0.00144287194738325 2886608.40873623 -1001849.36801247
     221 0.0014428719   -1001849.4            0   -1001849.4   -304.46645 
2.02 9.27860066627657 548.936038999994 0.00145674499975823 2886608.40873623 -1001849.36713377
     222  0.001456745   -1001849.4            0   -1001849.4     -303.836 
2.03 9.27891384421446 548.936038999994 0.00147049138042765 2886608.40873623 -1001849.36626221
     223 0.0014704914   -1001849.4            0   -1001849.4   -303.20679 
2.04 9.27922609341691 548.936038999993 0.00148407466565864 2886608.40873623 -1001849.36539715
     224 0.0014840747   -1001849.4            0   -1001849.4   -302.57963 
2.05 9.27953710573167 548.936038999993 0.00149746148228933 2886608.40873623 -1001849.36454253
     225 0.0014974615   -1001849.4            0   -1001849.4   -301.95526 
2.06 9.27984657422713 548.936038999994 0.00151063356260163 2886608.40873623 -1001849.3636995
     226 0.0015106336   -1001849.4            0   -1001849.4   -301.33438 
2.07 9.28015419349525 548.936038999994 0.00152358705141169 2886608.40873623 -1001849.36286546
     227 0.0015235871   -1001849.4            0   -1001849.4   -300.71759 
2.08 9.28045965995293 548.936038999994 0.0015363181326092 2886608.40873623 -1001849.36204746
     228 0.0015363181   -1001849.4            0   -1001849.4   -300.10539 
2.09 9.28076267214167 548.936038999994 0.00154880775217188 2886608.40873623 -1001849.36124287
     229 0.0015488078   -1001849.4            0   -1001849.4   -299.49823 
2.1 9.28106293102505 548.936038999994 0.00156101961109233 2886608.40873623 -1001849.36045369
     230 0.0015610196   -1001849.4            0   -1001849.4   -298.89654 
2.11 9.28136014028372 548.936038999993 0.00157291320223667 2886608.40873623 -1001849.35968448
     231 0.0015729132   -1001849.4            0   -1001849.4   -298.30075 
2.12 9.28165400660812 548.936038999994 0.00158445961781208 2886608.40873623 -1001849.35893318
     232 0.0015844596   -1001849.4            0   -1001849.4   -297.71137 
2.13 9.28194423998762 548.936038999994 0.00159564585278947 2886608.40873623 -1001849.35820361
     233 0.0015956459   -1001849.4            0   -1001849.4   -297.12894 
2.14 9.28223055399693 548.936038999993 0.00160646508715659 2886608.40873623 -1001849.35749501
     234 0.0016064651   -1001849.4            0   -1001849.4   -296.55412 
2.15 9.28251266607869 548.936038999993 0.00161690412600218 2886608.40873623 -1001849.35680994
     235 0.0016169041   -1001849.4            0   -1001849.4   -295.98759 
2.16 9.28279029782231 548.936038999994 0.00162694129942845 2886608.40873623 -1001849.35614794
     236 0.0016269413   -1001849.4            0   -1001849.4   -295.43007 
2.17 9.28306317523879 548.936038999994 0.00163655685065239 2886608.40873623 -1001849.35551295
     237 0.0016365569   -1001849.4            0   -1001849.4   -294.88229 
2.18 9.28333102903108 548.936038999994 0.00164574469482357 2886608.40873623 -1001849.35490191
     238 0.0016457447   -1001849.4            0   -1001849.4    -294.3449 
2.19 9.28359359485978 548.936038999993 0.00165451268144372 2886608.40873623 -1001849.35431582
     239 0.0016545127   -1001849.4            0   -1001849.4   -293.81848 
2.2 9.2838506136042 548.936038999994 0.00166286990941546 2886608.40873623 -1001849.35375649
     240 0.0016628699   -1001849.4            0   -1001849.4   -293.30352 
2.21 9.28410183161781 548.936038999994 0.00167081279405819 2886608.40873623 -1001849.35322507
     241 0.0016708128   -1001849.4            0   -1001849.4   -292.80043 
2.22 9.28434700097876 548.936038999993 0.00167832329246784 2886608.40873623 -1001849.35272021
     242 0.0016783233   -1001849.4            0   -1001849.4   -292.30956 
2.23 9.28458587973451 548.936038999994 0.00168538117534023 2886608.40873623 -1001849.35224139
     243 0.0016853812   -1001849.4            0   -1001849.4   -291.83124 
2.24 9.28481823214056 548.936038999994 0.00169197883788241 2886608.40873623 -1001849.35179065
     244 0.0016919788   -1001849.4            0   -1001849.4   -291.36581 
2.25 9.28504382889314 548.936038999993 0.00169812502374689 2886608.40873623 -1001849.35136878
     245  0.001698125   -1001849.4            0   -1001849.4   -290.91364 
2.26 9.28526244735549 548.936038999994 0.00170383492453748 2886608.40873623 -1001849.35097528
     246 0.0017038349   -1001849.4            0   -1001849.4   -290.47519 
2.27 9.28547387177758 548.936038999993 0.00170911732154291 2886608.40873623 -1001849.35060855
     247 0.0017091173   -1001849.4            0   -1001849.4   -290.05095 
2.28 9.28567789350903 548.936038999994 0.00171397174935356 2886608.40873623 -1001849.35027064
     248 0.0017139717   -1001849.4            0   -1001849.4   -289.64148 
2.29 9.28587431120505 548.936038999994 0.00171839804583078 2886608.40873623 -1001849.34995779
     249  0.001718398   -1001849.4            0   -1001849.3   -289.24734 
2.3 9.28606293102502 548.936038999993 0.00172240791935194 2886608.40873623 -1001849.34967168
     250 0.0017224079   -1001849.4            0   -1001849.3   -288.86905 
2.31 9.28624356682402 548.936038999994 0.00172602608520964 2886608.40873623 -1001849.34941175
     251 0.0017260261   -1001849.4            0   -1001849.3   -288.50709 
2.32 9.2864160403363 548.936038999994 0.00172927910474875 2886608.40873623 -1001849.34917651
     252 0.0017292791   -1001849.4            0   -1001849.3   -288.16183 
2.33 9.28658018135133 548.936038999994 0.00173218262934066 2886608.40873623 -1001849.34896525
     253 0.0017321826   -1001849.4            0   -1001849.3   -287.83358 
2.34 9.28673582788172 548.936038999994 0.00173473968400121 2886608.40873623 -1001849.34877488
     254 0.0017347397   -1001849.4            0   -1001849.3   -287.52255 
2.35 9.28688282632316 548.936038999994 0.001736951953075 2886608.40873623 -1001849.3486097
     255  0.001736952   -1001849.4            0   -1001849.3   -287.22891 
2.36 9.28702103160594 548.936038999993 0.00173883334797054 2886608.40873623 -1001849.3484646
     256 0.0017388333   -1001849.4            0   -1001849.3    -286.9528 
2.37 9.28715030733813 548.936038999993 0.00174041299596426 2886608.40873623 -1001849.34834019
     257  0.001740413   -1001849.4            0   -1001849.3    -286.6944 
2.38 9.28727052594015 548.936038999993 0.0017417252259635 2886608.40873623 -1001849.34823399
     258 0.0017417252   -1001849.4            0   -1001849.3   -286.45391 
2.39 9.28738156877081 548.936038999994 0.0017427967336487 2886608.40873623 -1001849.34814567
     259 0.0017427967   -1001849.4            0   -1001849.3   -286.23158 
2.4 9.28748332624423 548.936038999994 0.00174364345643632 2886608.40873623 -1001849.34807272
     260 0.0017436435   -1001849.4            0   -1001849.3   -286.02771 
2.41 9.28757569793806 548.936038999994 0.0017442796529783 2886608.40873623 -1001849.34801554
     261 0.0017442797   -1001849.4            0   -1001849.3   -285.84265 
2.42 9.28765859269256 548.936038999994 0.0017447294215161 2886608.40873623 -1001849.34797112
     262 0.0017447294   -1001849.4            0   -1001849.3   -285.67671 
2.43 9.28773192870069 548.936038999993 0.00174502862788936 2886608.40873623 -1001849.34793699
     263 0.0017450286   -1001849.4            0   -1001849.3   -285.53018 
2.44 9.28779563358857 548.936038999994 0.00174521506850805 2886608.40873623 -1001849.34791299
     264 0.0017452151   -1001849.4            0   -1001849.3   -285.40326 
2.45 9.28784964448723 548.936038999994 0.00174531667885737 2886608.40873623 -1001849.34789767
     265 0.0017453167   -1001849.4            0   -1001849.3   -285.29608 
2.46 9.28789390809442 548.936038999994 0.00174534968254738 2886608.40873623 -1001849.34788903
     266 0.0017453497   -1001849.4            0   -1001849.3    -285.2087 
2.47 9.28792838072731 548.936038999994 0.0017453287033153 2886608.40873623 -1001849.34788506
     267 0.0017453287   -1001849.4            0   -1001849.3   -285.14107 
2.48 9.28795302836558 548.936038999994 0.0017452789279772 2886608.40873623 -1001849.34788379
     268 0.0017452789   -1001849.4            0   -1001849.3   -285.09315 
2.49 9.28796782668494 548.936038999994 0.00174523831511641 2886608.40873623 -1001849.34788333
     269 0.0017452383   -1001849.4            0   -1001849.3   -285.06484 
2.5 9.28797276108127 548.936038999994 0.00174524763843393 2886608.40873623 -1001849.34788451
     270 0.0017452476   -1001849.4            0   -1001849.3   -285.05611 
2.51 9.28796782668494 548.936038999994 0.00174533806633935 2886608.40873623 -1001849.34788186
     271 0.0017453381   -1001849.4            0   -1001849.3   -285.06694 
2.52 9.28795302836558 548.936038999993 0.00174552822414607 2886608.40873623 -1001849.34787614
     272 0.0017455282   -1001849.4            0   -1001849.3   -285.09735 
2.53 9.28792838072731 548.936038999993 0.00174583316469577 2886608.40873623 -1001849.34786387
     273 0.0017458332   -1001849.4            0   -1001849.3   -285.14743 
2.54 9.28789390809442 548.936038999994 0.00174627595517617 2886608.40873623 -1001849.34784488
     274  0.001746276   -1001849.4            0   -1001849.3   -285.21724 
2.55 9.28784964448723 548.936038999993 0.00174689028924091 2886608.40873623 -1001849.34781711
     275 0.0017468903   -1001849.4            0   -1001849.3   -285.30683 
2.56 9.28779563358857 548.936038999994 0.00174771176911852 2886608.40873623 -1001849.34777896
     276 0.0017477118   -1001849.4            0   -1001849.3   -285.41622 
2.57 9.28773192870069 548.936038999994 0.00174876689811667 2886608.40873623 -1001849.3477287
     277 0.0017487669   -1001849.4            0   -1001849.3   -285.54532 
2.58 9.28765859269256 548.936038999993 0.00175007097637964 2886608.40873623 -1001849.34766499
     278  0.001750071   -1001849.4            0   -1001849.3     -285.694 
2.59 9.28757569793806 548.936038999994 0.00175163695570665 2886608.40873623 -1001849.34758524
     279  0.001751637   -1001849.4            0   -1001849.3   -285.86202 
2.6 9.28748332624423 548.936038999993 0.0017534861432463 2886608.40873623 -1001849.34748963
     280 0.0017534861   -1001849.4            0   -1001849.3   -286.04911 
2.61 9.28738156877081 548.936038999994 0.00175564966443167 2886608.40873623 -1001849.34737464
     281 0.0017556497   -1001849.4            0   -1001849.3   -286.25496 
2.62 9.28727052594015 548.936038999994 0.00175815876356307 2886608.40873623 -1001849.34724137
     282 0.0017581588   -1001849.4            0   -1001849.3   -286.47927 
2.63 9.28715030733813 548.936038999994 0.00176103316084017 2886608.40873623 -1001849.34708843
     283 0.0017610332   -1001849.4            0   -1001849.3   -286.72178 
2.64 9.28702103160594 548.936038999993 0.00176427870520578 2886608.40873623 -1001849.34691227
     284 0.0017642787   -1001849.4            0   -1001849.3   -286.98224 
2.65 9.28688282632316 548.936038999994 0.00176789650354126 2886608.40873623 -1001849.34671223
     285 0.0017678965   -1001849.4            0   -1001849.3   -287.26047 
2.66 9.28673582788172 548.936038999993 0.00177189460485785 2886608.40873623 -1001849.34649037
     286 0.0017718946   -1001849.4            0   -1001849.3   -287.55629 
2.67 9.28658018135133 548.936038999994 0.00177629112998247 2886608.40873623 -1001849.34624521
     287 0.0017762911   -1001849.4            0   -1001849.3   -287.86953 
2.68 9.2864160403363 548.936038999994 0.00178110645753138 2886608.40873623 -1001849.34597379
     288 0.0017811065   -1001849.4            0   -1001849.3   -288.19998 
2.69 9.28624356682402 548.936038999994 0.00178635286852918 2886608.40873623 -1001849.34567582
     289 0.0017863529   -1001849.4            0   -1001849.3   -288.54737 
2.7 9.28606293102502 548.936038999994 0.00179203217070767 2886608.40873623 -1001849.34535292
     290 0.0017920322   -1001849.4            0   -1001849.3   -288.91138 
2.71 9.28587431120505 548.936038999994 0.0017981433409689 2886608.40873623 -1001849.34500209
     291 0.0017981433   -1001849.4            0   -1001849.3   -289.29159 
2.72 9.28567789350903 548.936038999994 0.0018046918306058 2886608.40873623 -1001849.34462416
     292 0.0018046918   -1001849.4            0   -1001849.3   -289.68755 
2.73 9.28547387177758 548.936038999994 0.00181169037490459 2886608.40873623 -1001849.3442179
     293 0.0018116904   -1001849.4            0   -1001849.3   -290.09875 
2.74 9.28526244735549 548.936038999994 0.00181914972584536 2886608.40873623 -1001849.34378398
     294 0.0018191497   -1001849.4            0   -1001849.3   -290.52468 
2.75 9.28504382889314 548.936038999994 0.00182706804346244 2886608.40873623 -1001849.34332204
     295  0.001827068   -1001849.4            0   -1001849.3   -290.96486 
2.76 9.28481823214056 548.936038999994 0.00183542938571667 2886608.40873623 -1001849.34283139
     296 0.0018354294   -1001849.4            0   -1001849.3   -291.41883 
2.77 9.28458587973451 548.936038999994 0.00184421310029159 2886608.40873623 -1001849.34231515
     297 0.0018442131   -1001849.4            0   -1001849.3   -291.88617 
2.78 9.28434700097876 548.936038999994 0.00185340550159645 2886608.40873623 -1001849.34177017
     298 0.0018534055   -1001849.4            0   -1001849.3   -292.36651 
2.79 9.28410183161781 548.936038999994 0.00186300327101377 2886608.40873623 -1001849.34119952
     299 0.0018630033   -1001849.4            0   -1001849.3   -292.85947 
2.8 9.2838506136042 548.936038999994 0.00187300631155475 2886608.40873623 -1001849.34060303
     300 0.0018730063   -1001849.4            0   -1001849.3   -293.36467 
2.81 9.28359359485978 548.936038999994 0.00188340795022993 2886608.40873623 -1001849.33998039
     301  0.001883408   -1001849.4            0   -1001849.3   -293.88168 
2.82 9.28333102903108 548.936038999994 0.00189419236011344 2886608.40873623 -1001849.33933351
     302 0.0018941924   -1001849.4            0   -1001849.3   -294.41003 
2.83 9.28306317523879 548.936038999994 0.00190534114828642 2886608.40873623 -1001849.33866276
     303 0.0019053411   -1001849.4            0   -1001849.3   -294.94917 
2.84 9.28279029782231 548.936038999994 0.00191684142201525 2886608.40873623 -1001849.33796743
     304 0.0019168414   -1001849.4            0   -1001849.3   -295.49852 
2.85 9.28251266607869 548.936038999994 0.00192868607599927 2886608.40873623 -1001849.3372496
     305 0.0019286861   -1001849.4            0   -1001849.3   -296.05743 
2.86 9.28223055399693 548.936038999994 0.00194086507594884 2886608.40873623 -1001849.33651132
     306 0.0019408651   -1001849.4            0   -1001849.3   -296.62525 
2.87 9.28194423998762 548.936038999994 0.00195335599484125 2886608.40873623 -1001849.33575171
     307  0.001953356   -1001849.4            0   -1001849.3   -297.20135 
2.88 9.28165400660812 548.936038999994 0.00196612339032897 2886608.40873623 -1001849.33497441
     308 0.0019661234   -1001849.4            0   -1001849.3   -297.78511 
2.89 9.28136014028372 548.936038999994 0.00197912837287232 2886608.40873623 -1001849.3341796
     309 0.0019791284   -1001849.4            0   -1001849.3   -298.37597 
2.9 9.28106293102505 548.936038999994 0.00199234003273863 2886608.40873623 -1001849.33336905
     310   0.00199234   -1001849.4            0   -1001849.3    -298.9734 
2.91 9.28076267214167 548.936038999994 0.00200573879183295 2886608.40873623 -1001849.33254277
     311 0.0020057388   -1001849.4            0   -1001849.3   -299.57689 
2.92 9.28045965995293 548.936038999995 0.00201930967687489 2886608.40873623 -1001849.33170614
     312 0.0020193097   -1001849.4            0   -1001849.3   -300.18595 
2.93 9.28015419349525 548.936038999994 0.00203303301451986 2886608.40873623 -1001849.33085741
     313  0.002033033   -1001849.4            0   -1001849.3   -300.80006 
2.94 9.27984657422713 548.936038999994 0.00204688178120547 2886608.40873623 -1001849.32999899
     314 0.0020468818   -1001849.4            0   -1001849.3   -301.41865 
2.95 9.27953710573167 548.936038999994 0.00206082737393918 2886608.40873623 -1001849.32913149
     315 0.0020608274   -1001849.4            0   -1001849.3   -302.04113 
2.96 9.27922609341691 548.936038999994 0.00207484666731211 2886608.40873623 -1001849.32825693
     316 0.0020748467   -1001849.4            0   -1001849.3   -302.66683 
2.97 9.27891384421446 548.936038999994 0.00208892192821042 2886608.40873623 -1001849.32737917
     317 0.0020889219   -1001849.4            0   -1001849.3   -303.29507 
2.98 9.27860066627657 548.936038999993 0.00210303270642742 2886608.40873623 -1001849.32649623
     318 0.0021030327   -1001849.4            0   -1001849.3   -303.92512 
2.99 9.27828686867208 548.936038999995 0.00211714748314354 2886608.40873623 -1001849.32561199
     319 0.0021171475   -1001849.4            0   -1001849.3   -304.55629 
3 9.2779727610813 548.936038999994 0.00213122380413158 2886608.40873623 -1001849.32472821
     320 0.0021312238   -1001849.4            0   -1001849.3   -305.18791 
3.01 9.27765865349049 548.936038999994 0.00214521777818197 2886608.40873623 -1001849.32384639
     321 0.0021452178   -1001849.4            0   -1001849.3   -305.81932 
3.02 9.27734485588599 548.936038999993 0.00215909491371279 2886608.40873623 -1001849.32296959
     322 0.0021590949   -1001849.4            0   -1001849.3   -306.44996 
3.03 9.27703167794809 548.936038999993 0.0021728330728793 2886608.40873623 -1001849.32209944
     323 0.0021728331   -1001849.4            0   -1001849.3   -307.07926 
3.04 9.27671942874563 548.936038999994 0.00218641592763011 2886608.40873623 -1001849.32123583
     324 0.0021864159   -1001849.4            0   -1001849.3   -307.70669 
3.05 9.27640841643087 548.936038999993 0.00219982411426148 2886608.40873623 -1001849.32038125
     325 0.0021998241   -1001849.4            0   -1001849.3   -308.33171 
3.06 9.27609894793542 548.936038999994 0.00221303268118461 2886608.40873623 -1001849.31953763
     326 0.0022130327   -1001849.4            0   -1001849.3   -308.95376 
3.07 9.2757913286673 548.936038999994 0.00222601632559569 2886608.40873623 -1001849.31870552
     327 0.0022260163   -1001849.4            0   -1001849.3   -309.57225 
3.08 9.27548586220963 548.936038999993 0.00223875571051214 2886608.40873623 -1001849.31788823
     328 0.0022387557   -1001849.4            0   -1001849.3   -310.18654 
3.09 9.27518285002089 548.936038999994 0.00225123716481395 2886608.40873623 -1001849.3170841
     329 0.0022512372   -1001849.4            0   -1001849.3   -310.79597 
3.1 9.27488259113754 548.936038999994 0.00226344518699716 2886608.40873623 -1001849.31629677
     330 0.0022634452   -1001849.4            0   -1001849.3   -311.39986 
3.11 9.27458538187883 548.936038999994 0.00227535506875789 2886608.40873623 -1001849.31552792
     331 0.0022753551   -1001849.4            0   -1001849.3   -311.99754 
3.12 9.27429151555443 548.936038999994 0.00228693353178361 2886608.40873623 -1001849.31477667
     332 0.0022869335   -1001849.4            0   -1001849.3   -312.58834 
3.13 9.27400128217493 548.936038999993 0.00229814782356258 2886608.40873623 -1001849.31404803
     333 0.0022981478   -1001849.4            0   -1001849.3   -313.17167 
3.14 9.27371496816563 548.936038999995 0.00230897560247763 2886608.40873623 -1001849.31333985
     334 0.0023089756   -1001849.4            0   -1001849.3   -313.74697 
3.15 9.27343285608389 548.936038999994 0.00231940718048008 2886608.40873623 -1001849.31265611
     335 0.0023194072   -1001849.4            0   -1001849.3   -314.31371 
3.16 9.27315522434027 548.936038999995 0.00232943898150264 2886608.40873623 -1001849.31199638
     336  0.002329439   -1001849.4            0   -1001849.3   -314.87142 
3.17 9.27288234692376 548.936038999994 0.00233906516714018 2886608.40873623 -1001849.3113606
     337 0.0023390652   -1001849.4            0   -1001849.3   -315.41962 
3.18 9.2726144931315 548.936038999993 0.00234827537746614 2886608.40873623 -1001849.31075104
     338 0.0023482754   -1001849.4            0   -1001849.3   -315.95783 
3.19 9.27235192730276 548.936038999994 0.00235705973251328 2886608.40873623 -1001849.31016638
     339 0.0023570597   -1001849.4            0   -1001849.3   -316.48555 
3.2 9.27209490855835 548.936038999994 0.00236541469201572 2886608.40873623 -1001849.30960912
     340 0.0023654147   -1001849.4            0   -1001849.3   -317.00226 
3.21 9.27184369054475 548.936038999994 0.00237334269843078 2886608.40873623 -1001849.30907692
     341 0.0023733427   -1001849.4            0   -1001849.3   -317.50741 
3.22 9.27159852118379 548.936038999995 0.00238084527492987 2886608.40873623 -1001849.30857223
     342 0.0023808453   -1001849.4            0   -1001849.3   -318.00042 
3.23 9.27135964242804 548.936038999994 0.00238791644074532 2886608.40873623 -1001849.30809554
     343 0.0023879164   -1001849.4            0   -1001849.3   -318.48073 
3.24 9.271127290022 548.936038999994 0.00239454356090801 2886608.40873623 -1001849.30764642
     344 0.0023945436   -1001849.4            0   -1001849.3   -318.94782 
3.25 9.27090169326943 548.936038999994 0.00240071571406187 2886608.40873623 -1001849.30722502
     345 0.0024007157   -1001849.4            0   -1001849.3   -319.40118 
3.26 9.27068307480708 548.936038999994 0.00240643232950644 2886608.40873623 -1001849.30683152
     346 0.0024064323   -1001849.4            0   -1001849.3   -319.84036 
3.27 9.27047165038497 548.936038999994 0.00241170450447346 2886608.40873623 -1001849.30646499
     347 0.0024117045   -1001849.4            0   -1001849.3   -320.26498 
3.28 9.27026762865352 548.936038999994 0.00241654837722155 2886608.40873623 -1001849.3061276
     348 0.0024165484   -1001849.4            0   -1001849.3   -320.67467 
3.29 9.27007121095752 548.936038999994 0.00242097728722732 2886608.40873623 -1001849.30581691
     349 0.0024209773   -1001849.4            0   -1001849.3    -321.0691 
3.3 9.26988259113754 548.936038999994 0.00242500001430449 2886608.40873623 -1001849.30553202
     350     0.002425   -1001849.4            0   -1001849.3   -321.44794 
3.31 9.26970195533853 548.936038999994 0.00242862583161824 2886608.40873623 -1001849.30527099
     351 0.0024286258   -1001849.4            0   -1001849.3   -321.81087 
3.32 9.26952948182626 548.936038999994 0.00243187017611097 2886608.40873623 -1001849.3050363
     352 0.0024318702   -1001849.4            0   -1001849.3   -322.15753 
3.33 9.26936534081124 548.936038999994 0.00243475438400819 2886608.40873623 -1001849.30482647
     353 0.0024347544   -1001849.4            0   -1001849.3   -322.48755 
3.34 9.26920969428086 548.936038999994 0.00243729936004261 2886608.40873623 -1001849.30463857
     354 0.0024372994   -1001849.4            0   -1001849.3   -322.80054 
3.35 9.26906269583939 548.936038999994 0.00243951960915535 2886608.40873623 -1001849.30447297
     355 0.0024395196   -1001849.4            0   -1001849.3   -323.09614 
3.36 9.26892449055662 548.936038999994 0.00244142404850676 2886608.40873623 -1001849.30432841
     356  0.002441424   -1001849.4            0   -1001849.3   -323.37398 
3.37 9.26879521482446 548.936038999994 0.00244302340916449 2886608.40873623 -1001849.30420384
     357 0.0024430234   -1001849.4            0   -1001849.3   -323.63376 
3.38 9.26867499622239 548.936038999994 0.00244433745935404 2886608.40873623 -1001849.30409861
     358 0.0024443375   -1001849.4            0   -1001849.3   -323.87519 
3.39 9.26856395339174 548.936038999993 0.0024453953225333 2886608.40873623 -1001849.30401149
     359 0.0024453953   -1001849.4            0   -1001849.3   -324.09809 
3.4 9.26846219591832 548.936038999995 0.00244622878231292 2886608.40873623 -1001849.30393926
     360 0.0024462288   -1001849.4            0   -1001849.3   -324.30226 
3.41 9.26836982422451 548.936038999993 0.00244686508417907 2886608.40873623 -1001849.30388073
     361 0.0024468651   -1001849.4            0   -1001849.3   -324.48758 
3.42 9.26828692946999 548.936038999995 0.00244732586284762 2886608.40873623 -1001849.3038363
     362 0.0024473259   -1001849.4            0   -1001849.3   -324.65392 
3.43 9.26821359346191 548.936038999994 0.00244763248732406 2886608.40873623 -1001849.30380411
     363 0.0024476325   -1001849.4            0   -1001849.3   -324.80117 
3.44 9.26814988857399 548.936038999993 0.00244781176403929 2886608.40873623 -1001849.30378027
     364 0.0024478118   -1001849.4            0   -1001849.3   -324.92919 
3.45 9.26809587767533 548.936038999994 0.00244789588730628 2886608.40873623 -1001849.30376593
     365 0.0024478959   -1001849.4            0   -1001849.3   -325.03785 
3.46 9.26805161406815 548.936038999994 0.00244791666017162 2886608.40873623 -1001849.30375662
     366 0.0024479167   -1001849.4            0   -1001849.3   -325.12699 
3.47 9.26801714143524 548.936038999994 0.00244790000837663 2886608.40873623 -1001849.30375182
     367    0.0024479   -1001849.4            0   -1001849.3   -325.19646 
3.48 9.26799249379701 548.936038999994 0.0024478665912024 2886608.40873623 -1001849.30375173
     368 0.0024478666   -1001849.4            0   -1001849.3   -325.24613 
3.49 9.26797769547762 548.936038999993 0.00244783813182795 2886608.40873623 -1001849.30375253
     369 0.0024478381   -1001849.4            0   -1001849.3   -325.27592 
3.5 9.26797276108129 548.936038999994 0.00244784321722759 2886608.40873623 -1001849.30375251
     370 0.0024478432   -1001849.4            0   -1001849.3   -325.28577 
3.51 9.26797769547762 548.936038999994 0.00244791668449046 2886608.40873623 -1001849.30374922
     371 0.0024479167   -1001849.4            0   -1001849.3   -325.27569 
3.52 9.26799249379701 548.936038999993 0.00244809296174961 2886608.40873623 -1001849.30374413
     372  0.002448093   -1001849.4            0   -1001849.3   -325.24572 
3.53 9.26801714143524 548.936038999993 0.00244839963123624 2886608.40873623 -1001849.30373177
     373 0.0024483996   -1001849.4            0   -1001849.3   -325.19596 
3.54 9.26805161406815 548.936038999994 0.00244885718416279 2886608.40873623 -1001849.30371387
     374 0.0024488572   -1001849.4            0   -1001849.3   -325.12651 
3.55 9.26809587767533 548.936038999994 0.0024494848137742 2886608.40873623 -1001849.30368516
     375 0.0024494848   -1001849.4            0   -1001849.3   -325.03749 
3.56 9.26814988857399 548.936038999994 0.00245030629018251 2886608.40873623 -1001849.30364619
     376 0.0024503063   -1001849.4            0   -1001849.3   -324.92901 
3.57 9.26821359346191 548.936038999994 0.00245135019470976 2886608.40873623 -1001849.3035953
     377 0.0024513502   -1001849.4            0   -1001849.3   -324.80116 
3.58 9.26828692946999 548.936038999994 0.00245264466453215 2886608.40873623 -1001849.30353142
     378 0.0024526447   -1001849.4            0   -1001849.3   -324.65405 
3.59 9.26836982422451 548.936038999994 0.00245421230134928 2886608.40873623 -1001849.30345203
     379 0.0024542123   -1001849.4            0   -1001849.3   -324.48776 
3.6 9.26846219591832 548.936038999994 0.00245607051636187 2886608.40873623 -1001849.30335575
     380 0.0024560705   -1001849.4            0   -1001849.3    -324.3024 
3.61 9.26856395339174 548.936038999995 0.0024582368184134 2886608.40873623 -1001849.30324193
     381 0.0024582368   -1001849.4            0   -1001849.3   -324.09811 
3.62 9.26867499622239 548.936038999994 0.00246073332080837 2886608.40873623 -1001849.30310616
     382 0.0024607333   -1001849.4            0   -1001849.3   -323.87507 
3.63 9.26879521482446 548.936038999994 0.00246358536965176 2886608.40873623 -1001849.3029528
     383 0.0024635854   -1001849.4            0   -1001849.3    -323.6335 
3.64 9.26892449055662 548.936038999995 0.00246681506832663 2886608.40873623 -1001849.3027775
     384 0.0024668151   -1001849.4            0   -1001849.3   -323.37367 
3.65 9.26906269583939 548.936038999993 0.00247043569277014 2886608.40873623 -1001849.30257749
     385 0.0024704357   -1001849.4            0   -1001849.3   -323.09588 
3.66 9.26920969428086 548.936038999994 0.00247445232382725 2886608.40873623 -1001849.30235537
     386 0.0024744523   -1001849.4            0   -1001849.3   -322.80047 
3.67 9.26936534081124 548.936038999994 0.00247886812575928 2886608.40873623 -1001849.30210708
     387 0.0024788681   -1001849.4            0   -1001849.3   -322.48777 
3.68 9.26952948182626 548.936038999993 0.00248369041664063 2886608.40873623 -1001849.30183559
     388 0.0024836904   -1001849.4            0   -1001849.3   -322.15813 
3.69 9.26970195533853 548.936038999994 0.00248893117342652 2886608.40873623 -1001849.30153653
     389 0.0024889312   -1001849.4            0   -1001849.3   -321.81186 
3.7 9.26988259113754 548.936038999994 0.00249460224474099 2886608.40873623 -1001849.30121193
     390 0.0024946022   -1001849.4            0   -1001849.3   -321.44928 
3.71 9.27007121095752 548.936038999994 0.00250071059729187 2886608.40873623 -1001849.30086131
     391 0.0025007106   -1001849.4            0   -1001849.3   -321.07071 
3.72 9.27026762865352 548.936038999994 0.00250725841035299 2886608.40873623 -1001849.30048221
     392 0.0025072584   -1001849.4            0   -1001849.3   -320.67646 
3.73 9.27047165038497 548.936038999993 0.00251424745504262 2886608.40873623 -1001849.3000752
     393 0.0025142475   -1001849.4            0   -1001849.3   -320.26689 
3.74 9.27068307480708 548.936038999994 0.00252168253161458 2886608.40873623 -1001849.29964106
     394 0.0025216825   -1001849.4            0   -1001849.3   -319.84237 
3.75 9.27090169326943 548.936038999994 0.00252956956618847 2886608.40873623 -1001849.29917953
     395 0.0025295696   -1001849.4            0   -1001849.3   -319.40331 
3.76 9.271127290022 548.936038999994 0.00253790945952772 2886608.40873623 -1001849.29868852
     396 0.0025379095   -1001849.4            0   -1001849.3   -318.95016 
3.77 9.27135964242804 548.936038999994 0.0025466933776322 2886608.40873623 -1001849.29817012
     397 0.0025466934   -1001849.4            0   -1001849.3   -318.48343 
3.78 9.27159852118379 548.936038999994 0.00255590419931743 2886608.40873623 -1001849.2976243
     398 0.0025559042   -1001849.4            0   -1001849.3   -318.00362 
3.79 9.27184369054475 548.936038999994 0.00256552318180199 2886608.40873623 -1001849.29705298
     399 0.0025655232   -1001849.4            0   -1001849.3   -317.51125 
3.8 9.27209490855835 548.936038999994 0.00257553612166825 2886608.40873623 -1001849.29645536
     400 0.0025755361   -1001849.4            0   -1001849.3   -317.00683 
3.81 9.27235192730276 548.936038999995 0.00258593402255055 2886608.40873623 -1001849.29583029
     401  0.002585934   -1001849.4            0   -1001849.3   -316.49087 
3.82 9.2726144931315 548.936038999994 0.0025967086762512 2886608.40873623 -1001849.29518312
     402 0.0025967087   -1001849.4            0   -1001849.3   -315.96387 
3.83 9.27288234692376 548.936038999994 0.00260784820135764 2886608.40873623 -1001849.29451126
     403 0.0026078482   -1001849.4            0   -1001849.3    -315.4263 
3.84 9.27315522434027 548.936038999994 0.0026193369526847 2886608.40873623 -1001849.29381637
     404  0.002619337   -1001849.4            0   -1001849.3   -314.87866 
3.85 9.27343285608389 548.936038999994 0.00263115918518921 2886608.40873623 -1001849.29309845
     405 0.0026311592   -1001849.4            0   -1001849.3   -314.32142 
3.86 9.27371496816563 548.936038999994 0.00264330168674049 2886608.40873623 -1001849.29235862
     406 0.0026433017   -1001849.4            0   -1001849.3   -313.75512 
3.87 9.27400128217493 548.936038999994 0.0026557515709432 2886608.40873623 -1001849.29159961
     407 0.0026557516   -1001849.4            0   -1001849.3    -313.1803 
3.88 9.27429151555443 548.936038999993 0.00266849054678856 2886608.40873623 -1001849.290821
     408 0.0026684905   -1001849.4            0   -1001849.3   -312.59756 
3.89 9.27458538187883 548.936038999994 0.00268149102449882 2886608.40873623 -1001849.29002558
     409  0.002681491   -1001849.4            0   -1001849.3   -312.00748 
3.9 9.27488259113754 548.936038999995 0.00269471820417877 2886608.40873623 -1001849.28921331
     410 0.0026947182   -1001849.4            0   -1001849.3   -311.41072 
3.91 9.27518285002089 548.936038999993 0.00270813690877681 2886608.40873623 -1001849.28838633
     411 0.0027081369   -1001849.4            0   -1001849.3   -310.80789 
3.92 9.27548586220963 548.936038999994 0.00272171761784361 2886608.40873623 -1001849.28754689
     412 0.0027217176   -1001849.4            0   -1001849.3   -310.19963 
3.93 9.2757913286673 548.936038999993 0.00273543710610589 2886608.40873623 -1001849.28669648
     413 0.0027354371   -1001849.4            0   -1001849.3   -309.58655 
3.94 9.27609894793542 548.936038999994 0.00274927425341236 2886608.40873623 -1001849.28583706
     414 0.0027492743   -1001849.4            0   -1001849.3   -308.96924 
3.95 9.27640841643087 548.936038999994 0.00276320583178986 2886608.40873623 -1001849.28496985
     415 0.0027632058   -1001849.4            0   -1001849.3   -308.34828 
3.96 9.27671942874563 548.936038999994 0.0027772063215555 2886608.40873623 -1001849.28409616
     416 0.0027772063   -1001849.4            0   -1001849.3   -307.72424 
3.97 9.27703167794809 548.936038999994 0.00279125107747591 2886608.40873623 -1001849.28321643
     417 0.0027912511   -1001849.4            0   -1001849.3   -307.09769 
3.98 9.27734485588599 548.936038999994 0.00280531842218392 2886608.40873623 -1001849.28233291
     418 0.0028053184   -1001849.4            0   -1001849.3   -306.46923 
3.99 9.27765865349049 548.936038999994 0.00281938733239411 2886608.40873623 -1001849.28144925
     419 0.0028193873   -1001849.4            0   -1001849.3   -305.83945 
4 9.2779727610813 548.936038999994 0.00283343216996568 2886608.40873623 -1001849.28056539
     420 0.0028334322   -1001849.4            0   -1001849.3   -305.20899 
4.01 9.27828686867208 548.936038999993 0.00284741947173191 2886608.40873623 -1001849.27968315
     421 0.0028474195   -1001849.4            0   -1001849.3    -304.5785 
4.02 9.27860066627657 548.936038999994 0.00286131042797216 2886608.40873623 -1001849.27880406
     422 0.0028613104   -1001849.4            0   -1001849.3   -303.94864 
4.03 9.27891384421446 548.936038999994 0.00287506758634977 2886608.40873623 -1001849.27793223
     423 0.0028750676   -1001849.4            0   -1001849.3   -303.32008 
4.04 9.27922609341691 548.936038999993 0.00288866047515155 2886608.40873623 -1001849.27706692
     424 0.0028886605   -1001849.4            0   -1001849.3   -302.69347 
4.05 9.27953710573167 548.936038999994 0.00290206597801232 2886608.40873623 -1001849.27621039
     425  0.002902066   -1001849.4            0   -1001849.3   -302.06945 
4.06 9.27984657422713 548.936038999994 0.00291526421986396 2886608.40873623 -1001849.27536662
     426 0.0029152642   -1001849.4            0   -1001849.3   -301.44862 
4.07 9.28015419349525 548.936038999993 0.00292823456968711 2886608.40873623 -1001849.27453408
     427 0.0029282346   -1001849.4            0   -1001849.3   -300.83157 
4.08 9.28045965995293 548.936038999994 0.0029409554718794 2886608.40873623 -1001849.27371489
     428 0.0029409555   -1001849.4            0   -1001849.3   -300.21887 
4.09 9.28076267214167 548.936038999993 0.00295340733529375 2886608.40873623 -1001849.27291182
     429 0.0029534073   -1001849.4            0   -1001849.3   -299.61109 
4.1 9.28106293102505 548.936038999994 0.00296557433138107 2886608.40873623 -1001849.27212443
     430 0.0029655743   -1001849.4            0   -1001849.3   -299.00879 
4.11 9.28136014028372 548.936038999994 0.00297744213155992 2886608.40873623 -1001849.27135589
     431 0.0029774421   -1001849.4            0   -1001849.3   -298.41255 
4.12 9.28165400660812 548.936038999993 0.0029889930972694 2886608.40873623 -1001849.27060489
     432 0.0029889931   -1001849.4            0   -1001849.3   -297.82297 
4.13 9.28194423998762 548.936038999994 0.00300020358759266 2886608.40873623 -1001849.2698744
     433 0.0030002036   -1001849.4            0   -1001849.3   -297.24066 
4.14 9.28223055399693 548.936038999994 0.00301104655437774 2886608.40873623 -1001849.26916475
     434 0.0030110466   -1001849.4            0   -1001849.3   -296.66621 
4.15 9.28251266607869 548.936038999994 0.00302149781056867 2886608.40873623 -1001849.26848066
     435 0.0030214978   -1001849.4            0   -1001849.3   -296.10025 
4.16 9.28279029782231 548.936038999993 0.00303154096072767 2886608.40873623 -1001849.26781765
     436  0.003031541   -1001849.4            0   -1001849.3   -295.54335 
4.17 9.28306317523879 548.936038999994 0.00304116729265992 2886608.40873623 -1001849.26718061
     437 0.0030411673   -1001849.4            0   -1001849.3    -294.9961 
4.18 9.28333102903108 548.936038999994 0.00305037161442896 2886608.40873623 -1001849.26657065
     438 0.0030503716   -1001849.4            0   -1001849.3   -294.45902 
4.19 9.28359359485978 548.936038999993 0.00305914847134353 2886608.40873623 -1001849.26598428
     439 0.0030591485   -1001849.4            0   -1001849.3   -293.93263 
4.2 9.2838506136042 548.936038999993 0.00306749211988356 2886608.40873623 -1001849.26542663
     440 0.0030674921   -1001849.4            0   -1001849.3   -293.41741 
4.21 9.28410183161781 548.936038999994 0.00307539935396452 2886608.40873623 -1001849.26489392
     441 0.0030753994   -1001849.4            0   -1001849.3   -292.91383 
4.22 9.28434700097876 548.936038999993 0.00308287122393043 2886608.40873623 -1001849.26438889
     442 0.0030828712   -1001849.4            0   -1001849.3   -292.42236 
4.23 9.28458587973451 548.936038999994 0.00308991094916736 2886608.40873623 -1001849.2639122
     443 0.0030899109   -1001849.4            0   -1001849.3   -291.94347 
4.24 9.28481823214056 548.936038999994 0.0030965195460053 2886608.40873623 -1001849.26346233
     444 0.0030965195   -1001849.4            0   -1001849.3   -291.47762 
4.25 9.28504382889314 548.936038999994 0.0031026934967877 2886608.40873623 -1001849.26303945
     445 0.0031026935   -1001849.4            0   -1001849.3   -291.02531 
4.26 9.28526244735549 548.936038999995 0.00310842722550055 2886608.40873623 -1001849.26264576
     446 0.0031084272   -1001849.4            0   -1001849.3     -290.587 
4.27 9.28547387177758 548.936038999994 0.00311371868071708 2886608.40873623 -1001849.26227941
     447 0.0031137187   -1001849.4            0   -1001849.3   -290.16317 
4.28 9.28567789350903 548.936038999994 0.00311857335909162 2886608.40873623 -1001849.26193883
     448 0.0031185734   -1001849.4            0   -1001849.3   -289.75426 
4.29 9.28587431120505 548.936038999994 0.00312300356569955 2886608.40873623 -1001849.26162608
     449 0.0031230036   -1001849.4            0   -1001849.3   -289.36071 
4.3 9.28606293102502 548.936038999994 0.00312702414413047 2886608.40873623 -1001849.26134042
     450 0.0031270241   -1001849.4            0   -1001849.3   -288.98289 
4.31 9.28624356682402 548.936038999994 0.00313064895506807 2886608.40873623 -1001849.26107961
     451  0.003130649   -1001849.4            0   -1001849.3   -288.62118 
4.32 9.2864160403363 548.936038999993 0.00313389113857421 2886608.40873623 -1001849.26084527
     452 0.0031338911   -1001849.4            0   -1001849.3   -288.27588 
4.33 9.28658018135133 548.936038999994 0.00313676607802231 2886608.40873623 -1001849.26063415
     453 0.0031367661   -1001849.4            0   -1001849.3   -287.94732 
4.34 9.28673582788172 548.936038999994 0.0031392932220236 2886608.40873623 -1001849.26044659
     454 0.0031392932   -1001849.4            0   -1001849.3   -287.63579 
[...]
    1910 0.0067554823   -1001849.3            0   -1001849.1   -281.50077 
18.91 9.2779727610813 548.936589143195 0.00648321520855708 2886608.40873623 -1001849.10523284
    1911 0.0064832152   -1001849.3            0   -1001849.1   -280.50231 
18.92 9.2779727610813 548.936609659719 0.00620522501488082 2886608.40873623 -1001849.10523052
    1912  0.006205225   -1001849.3            0   -1001849.1   -279.52722 
18.93 9.2779727610813 548.936632294111 0.005922755643367 2886608.40873623 -1001849.10522664
    1913 0.0059227556   -1001849.3            0   -1001849.1   -278.58116 
18.94 9.2779727610813 548.936656431005 0.00563716758907644 2886608.40873623 -1001849.10522488
    1914 0.0056371676   -1001849.3            0   -1001849.1    -277.6696 
18.95 9.27797276108129 548.936681553919 0.00534985803910633 2886608.40873623 -1001849.10521925
    1915  0.005349858   -1001849.3            0   -1001849.1   -276.79746 
18.96 9.2779727610813 548.936707148995 0.00506217035193973 2886608.40873623 -1001849.10521553
    1916 0.0050621704   -1001849.3            0   -1001849.1   -275.96882 
18.97 9.27797276108129 548.93673260132 0.00477532136052837 2886608.40873623 -1001849.10521381
    1917 0.0047753214   -1001849.3            0   -1001849.1   -275.18667 
18.98 9.27797276108129 548.936757112429 0.00449037190606395 2886608.40873623 -1001849.105212
    1918 0.0044903719   -1001849.2            0   -1001849.1   -274.45272 
18.99 9.2779727610813 548.936779663615 0.00420825148574049 2886608.40873623 -1001849.10520949
    1919 0.0042082515   -1001849.2            0   -1001849.1   -273.76734 
19 9.27797276108132 548.936799040758 0.0039298274448861 2886608.40873623 -1001849.10520566
    1920 0.0039298274   -1001849.2            0   -1001849.1   -273.12959 
19.01 9.2779727610813 548.936813923999 0.0036559921703703 2886608.40873623 -1001849.1052034
    1921 0.0036559922   -1001849.2            0   -1001849.1   -272.53731 
19.02 9.27797276108129 548.936823032352 0.00338773616980515 2886608.40873623 -1001849.1051998
    1922 0.0033877362   -1001849.2            0   -1001849.1   -271.98736 
19.03 9.27797276108131 548.936825301423 0.00312618259611038 2886608.40873623 -1001849.10519571
    1923 0.0031261826   -1001849.2            0   -1001849.1   -271.47588 
19.04 9.2779727610813 548.936820064341 0.00287257476002674 2886608.40873623 -1001849.10519351
    1924 0.0028725748   -1001849.2            0   -1001849.1   -270.99861 
19.05 9.2779727610813 548.936807203236 0.00262822423856356 2886608.40873623 -1001849.10519105
    1925 0.0026282242   -1001849.2            0   -1001849.1    -270.5513 
19.06 9.2779727610813 548.936787241788 0.00239443693793984 2886608.40873623 -1001849.10518845
    1926 0.0023944369   -1001849.2            0   -1001849.1      -270.13 
19.07 9.2779727610813 548.936761358074 0.0021724365045018 2886608.40873623 -1001849.10518771
    1927 0.0021724365   -1001849.2            0   -1001849.1   -269.73146 
19.08 9.27797276108129 548.936731309624 0.00196330170343479 2886608.40873623 -1001849.10518468
    1928 0.0019633017   -1001849.2            0   -1001849.1   -269.35338 
19.09 9.27797276108129 548.936699277048 0.00176793047026752 2886608.40873623 -1001849.10518531
    1929 0.0017679305   -1001849.2            0   -1001849.1   -268.99463 
19.1 9.27797276108129 548.936667646297 0.00158703938093485 2886608.40873623 -1001849.10518309
    1930 0.0015870394   -1001849.2            0   -1001849.1   -268.65534 
19.11 9.27797276108131 548.936638759972 0.00142120144085795 2886608.40873623 -1001849.10518276
    1931 0.0014212014   -1001849.1            0   -1001849.1   -268.33696 
19.12 9.27797276108131 548.936614673426 0.00127091541310364 2886608.40873623 -1001849.10518338
    1932 0.0012709154   -1001849.1            0   -1001849.1   -268.04211 
19.13 9.2779727610813 548.936596950615 0.00113668778951002 2886608.40873623 -1001849.1051828
    1933 0.0011366878   -1001849.1            0   -1001849.1   -267.77446 
19.14 9.27797276108128 548.936586527933 0.00101909951051513 2886608.40873623 -1001849.10518024
    1934 0.0010190995   -1001849.1            0   -1001849.1   -267.53839 
19.15 9.2779727610813 548.936583662947 0.000918830306738863 2886608.40873623 -1001849.10517923
    1935 0.00091883031   -1001849.1            0   -1001849.1   -267.33869 
19.16 9.27797276108129 548.93658797085 0.00083662683933137 2886608.40873623 -1001849.10517711
    1936 0.00083662684   -1001849.1            0   -1001849.1    -267.1802 
19.17 9.27797276108131 548.936598537359 0.000773222423306995 2886608.40873623 -1001849.10517613
    1937 0.00077322242   -1001849.1            0   -1001849.1   -267.06743 
19.18 9.27797276108129 548.936614084951 0.000729236179790146 2886608.40873623 -1001849.10517325
    1938 0.00072923618   -1001849.1            0   -1001849.1   -267.00421 
19.19 9.27797276108131 548.93663316204 0.000705087964156063 2886608.40873623 -1001849.10517248
    1939 0.00070508796   -1001849.1            0   -1001849.1   -266.99338 
19.2 9.2779727610813 548.936654322927 0.000700958190050859 2886608.40873623 -1001849.10517168
    1940 0.00070095819   -1001849.1            0   -1001849.1    -267.0366 
19.21 9.27797276108129 548.936676270424 0.000716802856145915 2886608.40873623 -1001849.10517045
    1941 0.00071680286   -1001849.1            0   -1001849.1    -267.1342 
19.22 9.27797276108129 548.93669794206 0.000752413364028398 2886608.40873623 -1001849.10517085
    1942 0.00075241336   -1001849.1            0   -1001849.1   -267.28515 
19.23 9.27797276108131 548.936718532835 0.000807497325760433 2886608.40873623 -1001849.10516819
    1943 0.00080749733   -1001849.1            0   -1001849.1   -267.48714 
19.24 9.27797276108129 548.936737460361 0.000881754285029311 2886608.40873623 -1001849.1051683
    1944 0.00088175429   -1001849.1            0   -1001849.1   -267.73676 
19.25 9.2779727610813 548.936754289444 0.000974926625043954 2886608.40873623 -1001849.10516714
    1945 0.00097492663   -1001849.1            0   -1001849.1   -268.02976 
19.26 9.2779727610813 548.936768640601 0.00108681539891663 2886608.40873623 -1001849.10516697
    1946 0.0010868154   -1001849.1            0   -1001849.1   -268.36137 
19.27 9.2779727610813 548.936780109337 0.00121725927175809 2886608.40873623 -1001849.10516679
    1947 0.0012172593   -1001849.1            0   -1001849.1   -268.72665 
19.28 9.27797276108131 548.936788219736 0.00136608161405056 2886608.40873623 -1001849.10516667
    1948 0.0013660816   -1001849.1            0   -1001849.1   -269.12088 
19.29 9.27797276108129 548.936792427901 0.00153301754597767 2886608.40873623 -1001849.10516707
    1949 0.0015330175   -1001849.2            0   -1001849.1   -269.53992 
19.3 9.27797276108129 548.936792179365 0.00171763974349109 2886608.40873623 -1001849.10516777
    1950 0.0017176397   -1001849.2            0   -1001849.1    -269.9805 
19.31 9.27797276108131 548.936787012202 0.00191930630531409 2886608.40873623 -1001849.10517159
    1951 0.0019193063   -1001849.2            0   -1001849.1   -270.44048 
19.32 9.27797276108131 548.936776686543 0.00213715144889747 2886608.40873623 -1001849.10517405
    1952 0.0021371514   -1001849.2            0   -1001849.1   -270.91898 
19.33 9.27797276108128 548.936761313713 0.00237012784848304 2886608.40873623 -1001849.10517648
    1953 0.0023701278   -1001849.2            0   -1001849.1    -271.4164 
19.34 9.27797276108129 548.936741455825 0.00261709086618165 2886608.40873623 -1001849.10517986
    1954 0.0026170909   -1001849.2            0   -1001849.1   -271.93441 
19.35 9.2779727610813 548.936718170038 0.0028768974868787 2886608.40873623 -1001849.10518287
    1955 0.0028768975   -1001849.2            0   -1001849.1   -272.47573 
19.36 9.2779727610813 548.936692980146 0.00314848514314328 2886608.40873623 -1001849.10518488
    1956 0.0031484851   -1001849.2            0   -1001849.1   -273.04389 
19.37 9.2779727610813 548.936667770506 0.00343090234470462 2886608.40873623 -1001849.10518776
    1957 0.0034309023   -1001849.2            0   -1001849.1    -273.6429 
19.38 9.2779727610813 548.936644611087 0.00372328159112728 2886608.40873623 -1001849.10518898
    1958 0.0037232816   -1001849.2            0   -1001849.1   -274.27688 
19.39 9.2779727610813 548.936625535344 0.00402476710867449 2886608.40873623 -1001849.10518894
    1959 0.0040247671   -1001849.2            0   -1001849.1   -274.94967 
19.4 9.27797276108133 548.936612302072 0.00433442590066702 2886608.40873623 -1001849.10519154
    1960 0.0043344259   -1001849.2            0   -1001849.1   -275.66448 
19.41 9.2779727610813 548.936606176858 0.00465117448076044 2886608.40873623 -1001849.10519334
    1961 0.0046511745   -1001849.3            0   -1001849.1   -276.42356 
19.42 9.27797276108129 548.936607766963 0.00497374553872956 2886608.40873623 -1001849.10519524
    1962 0.0049737455   -1001849.3            0   -1001849.1   -277.22798 
19.43 9.27797276108129 548.936616936066 0.00530070360735109 2886608.40873623 -1001849.10519699
    1963 0.0053007036   -1001849.3            0   -1001849.1   -278.07745 
19.44 9.27797276108131 548.936632813105 0.00563050304573625 2886608.40873623 -1001849.10519849
    1964  0.005630503   -1001849.3            0   -1001849.1   -278.97033 
19.45 9.27797276108129 548.936653894797 0.00596157022729321 2886608.40873623 -1001849.10520045
    1965 0.0059615702   -1001849.3            0   -1001849.1   -279.90366 
19.46 9.27797276108129 548.93667822686 0.0062923867334112 2886608.40873623 -1001849.10520088
    1966 0.0062923867   -1001849.3            0   -1001849.1   -280.87337 
19.47 9.27797276108129 548.936703636728 0.00662155135925091 2886608.40873623 -1001849.1052027
    1967 0.0066215514   -1001849.3            0   -1001849.1   -281.87456 
19.48 9.27797276108129 548.936727983169 0.00694780471850231 2886608.40873623 -1001849.10520368
    1968 0.0069478047   -1001849.3            0   -1001849.1   -282.90181 
19.49 9.2779727610813 548.936749386528 0.00727001002447456 2886608.40873623 -1001849.10520465
    1969   0.00727001   -1001849.3            0   -1001849.1   -283.94958 
19.5 9.2779727610813 548.936766407783 0.00758709574063956 2886608.40873623 -1001849.10520654
    1970 0.0075870957   -1001849.3            0   -1001849.1    -285.0126 
19.51 9.2779727610813 548.936778154251 0.00789797769172458 2886608.40873623 -1001849.10520836
    1971 0.0078979777   -1001849.4            0   -1001849.1   -286.08623 
19.52 9.27797276108129 548.936784302792 0.00820148624219848 2886608.40873623 -1001849.10521073
    1972 0.0082014862   -1001849.4            0   -1001849.1   -287.16678 
19.53 9.2779727610813 548.93678504549 0.008496324667901 2886608.40873623 -1001849.10521453
    1973 0.0084963247   -1001849.4            0   -1001849.1   -288.25173 
19.54 9.2779727610813 548.936780975265 0.00878107621480365 2886608.40873623 -1001849.10521865
    1974 0.0087810762   -1001849.4            0   -1001849.1   -289.33986 
19.55 9.2779727610813 548.936772937805 0.00905426137297825 2886608.40873623 -1001849.10522131
    1975 0.0090542614   -1001849.4            0   -1001849.1   -290.43129 
19.56 9.27797276108128 548.936761879704 0.00931442888066878 2886608.40873623 -1001849.1052263
    1976 0.0093144289   -1001849.4            0   -1001849.1   -291.52736 
19.57 9.27797276108129 548.936748720636 0.00956025084623994 2886608.40873623 -1001849.10522775
    1977 0.0095602508   -1001849.4            0   -1001849.1   -292.63044 
19.58 9.2779727610813 548.936734270018 0.0097905897571717 2886608.40873623 -1001849.10522978
    1978 0.0097905898   -1001849.4            0   -1001849.1   -293.74369 
19.59 9.2779727610813 548.936719197678 0.0100045146621854 2886608.40873623 -1001849.10523202
    1979  0.010004515   -1001849.4            0   -1001849.1   -294.87061 
19.6 9.2779727610813 548.936704055688 0.010201262109355 2886608.40873623 -1001849.10523216
    1980  0.010201262   -1001849.4            0   -1001849.1   -296.01476 
19.61 9.2779727610813 548.936689337189 0.010380157465578 2886608.40873623 -1001849.10523322
    1981  0.010380157   -1001849.4            0   -1001849.1   -297.17929 
19.62 9.2779727610813 548.936675550036 0.0105405262854785 2886608.40873623 -1001849.10523519
    1982  0.010540526   -1001849.4            0   -1001849.1   -298.36664 
19.63 9.2779727610813 548.936663279961 0.0106816282250903 2886608.40873623 -1001849.1052355
    1983  0.010681628   -1001849.4            0   -1001849.1   -299.57818 
19.64 9.27797276108128 548.936653220391 0.0108026369895901 2886608.40873623 -1001849.10523718
    1984  0.010802637   -1001849.4            0   -1001849.1   -300.81402 
19.65 9.2779727610813 548.936646153567 0.010902672946777 2886608.40873623 -1001849.10523717
    1985  0.010902673   -1001849.4            0   -1001849.1   -302.07292 
19.66 9.2779727610813 548.93664287865 0.0109808769485001 2886608.40873623 -1001849.10523657
    1986  0.010980877   -1001849.5            0   -1001849.1   -303.35223 
19.67 9.27797276108129 548.936644095119 0.0110365009709075 2886608.40873623 -1001849.1052373
    1987  0.011036501   -1001849.5            0   -1001849.1   -304.64807 
19.68 9.2779727610813 548.936650261004 0.0110689871883672 2886608.40873623 -1001849.10523611
    1988  0.011068987   -1001849.5            0   -1001849.1   -305.95554 
19.69 9.2779727610813 548.936661453531 0.011078012295398 2886608.40873623 -1001849.10523716
    1989  0.011078012   -1001849.5            0   -1001849.1   -307.26902 
19.7 9.27797276108131 548.936677262372 0.0110634856691034 2886608.40873623 -1001849.10523387
    1990  0.011063486   -1001849.5            0   -1001849.1    -308.5826 
19.71 9.27797276108128 548.93669674245 0.011025504281511 2886608.40873623 -1001849.10523363
    1991  0.011025504   -1001849.5            0   -1001849.1   -309.89041 
19.72 9.27797276108132 548.936718444445 0.0109642800988783 2886608.40873623 -1001849.10523339
    1992   0.01096428   -1001849.4            0   -1001849.1   -311.18713 
19.73 9.27797276108129 548.93674052816 0.0108800639094585 2886608.40873623 -1001849.10523275
    1993  0.010880064   -1001849.4            0   -1001849.1   -312.46824 
19.74 9.27797276108129 548.936760949193 0.0107730911095584 2886608.40873623 -1001849.10523133
    1994  0.010773091   -1001849.4            0   -1001849.1    -313.7304 
19.75 9.27797276108129 548.936777695492 0.0106435691630417 2886608.40873623 -1001849.10523202
    1995  0.010643569   -1001849.4            0   -1001849.1   -314.97158 
19.76 9.2779727610813 548.936789040048 0.0104917140198583 2886608.40873623 -1001849.10523048
    1996  0.010491714   -1001849.4            0   -1001849.1   -316.19112 
19.77 9.27797276108129 548.936793771198 0.0103178266183494 2886608.40873623 -1001849.10523059
    1997  0.010317827   -1001849.4            0   -1001849.1   -317.38973 
19.78 9.27797276108129 548.936791363789 0.0101223856378831 2886608.40873623 -1001849.10522911
    1998  0.010122386   -1001849.4            0   -1001849.1   -318.56928 
19.79 9.27797276108127 548.936782062763 0.00990612466913251 2886608.40873623 -1001849.10522605
    1999 0.0099061247   -1001849.4            0   -1001849.1   -319.73251 
19.8 9.27797276108132 548.936766864082 0.00967006516553141 2886608.40873623 -1001849.10522441
    2000 0.0096700652   -1001849.4            0   -1001849.1   -320.88273 
19.81 9.27797276108129 548.936747394173 0.00941549118154666 2886608.40873623 -1001849.10522194
    2001 0.0094154912   -1001849.4            0   -1001849.1   -322.02339 
19.82 9.27797276108129 548.936725705325 0.00914387318671144 2886608.40873623 -1001849.10521913
    2002 0.0091438732   -1001849.4            0   -1001849.1   -323.15768 
19.83 9.27797276108129 548.936704017818 0.00885676770771599 2886608.40873623 -1001849.1052158
    2003 0.0088567677   -1001849.4            0   -1001849.1   -324.28814 
19.84 9.2779727610813 548.936684447771 0.00855572873270272 2886608.40873623 -1001849.10521226
    2004 0.0085557287   -1001849.4            0   -1001849.1   -325.41636 
19.85 9.2779727610813 548.936668761103 0.00824226144607635 2886608.40873623 -1001849.10520888
    2005 0.0082422614   -1001849.4            0   -1001849.1   -326.54266 
19.86 9.2779727610813 548.936658188724 0.00791783122371406 2886608.40873623 -1001849.10520495
    2006 0.0079178312   -1001849.4            0   -1001849.1   -327.66604 
19.87 9.27797276108128 548.936653326751 0.00758391870547068 2886608.40873623 -1001849.10520017
    2007 0.0075839187   -1001849.3            0   -1001849.1   -328.78409 
19.88 9.2779727610813 548.936654130758 0.00724209458603487 2886608.40873623 -1001849.10519717
    2008 0.0072420946   -1001849.3            0   -1001849.1   -329.89313 
19.89 9.27797276108131 548.936659997056 0.00689408199077614 2886608.40873623 -1001849.10519245
    2009  0.006894082   -1001849.3            0   -1001849.1   -330.98841 
19.9 9.27797276108128 548.936669910124 0.00654178077004913 2886608.40873623 -1001849.10518825
    2010 0.0065417808   -1001849.3            0   -1001849.1   -332.06445 
19.91 9.27797276108127 548.936682625746 0.00618724249478395 2886608.40873623 -1001849.10518272
    2011 0.0061872425   -1001849.3            0   -1001849.1   -333.11539 
19.92 9.27797276108129 548.936696855842 0.00583260102099492 2886608.40873623 -1001849.10517855
    2012  0.005832601   -1001849.3            0   -1001849.1   -334.13547 
19.93 9.27797276108131 548.936711423905 0.00547997606197491 2886608.40873623 -1001849.10517291
    2013 0.0054799761   -1001849.3            0   -1001849.1   -335.11941 
19.94 9.2779727610813 548.936725368524 0.00513137386332092 2886608.40873623 -1001849.10517036
    2014 0.0051313739   -1001849.3            0   -1001849.1   -336.06284 
19.95 9.27797276108131 548.936737984777 0.00478860952457428 2886608.40873623 -1001849.10516475
    2015 0.0047886095   -1001849.3            0   -1001849.1   -336.96256 
19.96 9.27797276108131 548.936748806844 0.00445327008559652 2886608.40873623 -1001849.10516262
    2016 0.0044532701   -1001849.2            0   -1001849.1   -337.81679 
19.97 9.27797276108132 548.936757547248 0.00412672662024685 2886608.40873623 -1001849.10516011
    2017 0.0041267266   -1001849.2            0   -1001849.1   -338.62519 
19.98 9.2779727610813 548.936764016257 0.00381018871561147 2886608.40873623 -1001849.10515891
    2018 0.0038101887   -1001849.2            0   -1001849.1   -339.38888 
19.99 9.27797276108129 548.936768047653 0.00350477964214453 2886608.40873623 -1001849.10515675
    2019 0.0035047796   -1001849.2            0   -1001849.1   -340.11019 
20 9.2779727610813 548.936769453876 0.00321160114565326 2886608.40873623 -1001849.10515344
    2020 0.0032116011   -1001849.2            0   -1001849.1    -340.7924 
Loop time of 145.065 on 4 procs for 1200 steps with 243200 atoms

Performance: 7.147 ns/day, 3.358 hours/ns, 8.272 timesteps/s
100.0% CPU use with 4 MPI tasks x 1 OpenMP threads

MPI task timing breakdown:
Section |  min time  |  avg time  |  max time  |%varavg| %total
---------------------------------------------------------------
Pair    | 133.38     | 138.38     | 142.24     |  27.2 | 95.39
Neigh   | 0          | 0          | 0          |   0.0 |  0.00
Comm    | 0.50844    | 4.3705     | 9.4636     | 154.7 |  3.01
Output  | 0.23903    | 0.2784     | 0.29189    |   4.3 |  0.19
Modify  | 1.4474     | 1.4963     | 1.5957     |   4.9 |  1.03
Other   |            | 0.5387     |            |       |  0.37

Nlocal:    60800 ave 62000 max 59600 min
Histogram: 2 0 0 0 0 0 0 0 0 2
Nghost:    43436.2 ave 45983 max 40577 min
Histogram: 1 1 0 0 0 0 0 0 0 2
Neighs:    5.0902e+06 ave 5.20806e+06 max 4.96692e+06 min
Histogram: 2 0 0 0 0 0 0 0 0 2

Total # of neighbors = 20360800
Ave neighs/atom = 83.7204
Neighbor list builds = 0
Dangerous builds = 0
#run 8000
#unfix 2
#run 12000

#cscの説明に書いてあることだが、コノのプログラムはSLURMのバッチファイルによって動かす。
#計算規模によって dev.sh S_M.sh large.sh をうまく使い分けること
###################################################
Total wall time: 0:04:09
