LAMMPS (3 Mar 2020)
OMP_NUM_THREADS environment is not set. Defaulting to 1 thread. (../comm.cpp:94)
  using 1 OpenMP thread(s) per MPI task
#################################
#two psrts have to be corrected
#Vacancy >> type : Fe Fe Fe Fe
#Cu      >> type : Fe Fe Fe Fe Cu
#################################

####
#variable nvt_temp      equal 0.1                     # Temperature
#variable npt_temp      equal 0.1
####

variable mass         equal 55.845                    # Atomic Mass
variable press        equal 1.01325                    # Atomic Mass

units       metal
atom_style  atomic
boundary sf p p
#timestep    0.001
timestep    0.01
read_data   ./Fe.lat
  orthogonal box = (0 0 0) to (868.018 57.1065 57.1065)
  1 by 1 by 1 MPI processor grid
  reading atoms ...
  243200 atoms
  read_data CPU = 0.561147 secs

pair_style  eam/alloy
pair_coeff  * * ./FeCuNi.eam.alloy Fe Fe Fe Fe
#pair_coeff  * * ./new_potential/FeCuNi.eam.alloy Fe Fe Fe Fe Cu
mass        1 ${mass}
mass        1 55.845


group source type 2
800 atoms in group source
group detector type 3
800 atoms in group detector
variable s equal xcm(source,x)
variable d equal xcm(detector,x)
variable t equal temp
variable v equal vol
variable e equal etotal
variable i equal time
variable FIG string iranai
#
#
fix 1 all nve
thermo 1
#thermo_style custom time v_sox v_dex temp vol etotal v_FIG
#
fix extra all print 1 "$i $s $d $t $v $e" file outp.txt
#
#
minimize 1.0e-16 1.0e-16 10000 10000
WARNING: Using 'neigh_modify every 1 delay 0 check yes' setting during minimization (../min.cpp:190)
Neighbor list info ...
  update every 1 steps, delay 0 steps, check yes
  max neighbors/atom: 2000, page size: 100000
  master list distance cutoff = 7.6
  ghost atom cutoff = 7.6
  binsize = 3.8, bins = 229 16 16
  1 neighbor lists, perpetual/occasional/extra = 1 0 0
  (1) pair eam/alloy, perpetual
      attributes: half, newton on
      pair build: half/bin/atomonly/newton
      stencil: half/bin/3d/newton
      bin: standard
Per MPI rank memory allocation (min/avg/max) = 185.4 | 185.4 | 185.4 Mbytes
Step Temp E_pair E_mol TotEng Press Volume 
       0            0   -1001847.4            0   -1001847.4   -252.14705    2831021.6 
       1            0   -1001849.3            0   -1001849.3   -295.47404    2831021.6 
       2            0   -1001849.4            0   -1001849.4   -304.87818    2831021.6 
       3            0   -1001849.5            0   -1001849.5   -301.34607    2831021.6 
       4            0   -1001849.5            0   -1001849.5   -303.39808    2831021.6 
       5            0   -1001849.5            0   -1001849.5   -306.33129    2831021.6 
       6            0   -1001849.5            0   -1001849.5   -307.36668    2831021.6 
       7            0   -1001849.5            0   -1001849.5   -307.86996    2831021.6 
       8            0   -1001849.5            0   -1001849.5   -308.28664    2831021.6 
       9            0   -1001849.5            0   -1001849.5   -308.81819    2831021.6 
      10            0   -1001849.5            0   -1001849.5   -309.11868    2831021.6 
      11            0   -1001849.5            0   -1001849.5   -309.32618    2831021.6 
      12            0   -1001849.5            0   -1001849.5   -309.51085    2831021.6 
      13            0   -1001849.5            0   -1001849.5   -309.72221    2831021.6 
      14            0   -1001849.5            0   -1001849.5   -309.86926    2831021.6 
      15            0   -1001849.5            0   -1001849.5   -309.97756    2831021.6 
      16            0   -1001849.5            0   -1001849.5   -310.08307    2831021.6 
      17            0   -1001849.5            0   -1001849.5   -310.08307    2831021.6 
Loop time of 30.1469 on 1 procs for 17 steps with 243200 atoms

99.9% CPU use with 1 MPI tasks x 1 OpenMP threads

Minimization stats:
  Stopping criterion = linesearch alpha is zero
  Energy initial, next-to-last, final = 
        -1001847.41155     -1001849.45751     -1001849.45751
  Force two-norm initial, final = 7.1081 0.00692763
  Force max component initial, final = 0.198269 0.000126689
  Final line search alpha, max atom move = 0.000244141 3.09298e-08
  Iterations, force evaluations = 17 57

MPI task timing breakdown:
Section |  min time  |  avg time  |  max time  |%varavg| %total
---------------------------------------------------------------
Pair    | 29.378     | 29.378     | 29.378     |   0.0 | 97.45
Neigh   | 0          | 0          | 0          |   0.0 |  0.00
Comm    | 0.11124    | 0.11124    | 0.11124    |   0.0 |  0.37
Output  | 0.020178   | 0.020178   | 0.020178   |   0.0 |  0.07
Modify  | 0          | 0          | 0          |   0.0 |  0.00
Other   |            | 0.6375     |            |       |  2.11

Nlocal:    243200 ave 243200 max 243200 min
Histogram: 1 0 0 0 0 0 0 0 0 0
Nghost:    152304 ave 152304 max 152304 min
Histogram: 1 0 0 0 0 0 0 0 0 0
Neighs:    2.03608e+07 ave 2.03608e+07 max 2.03608e+07 min
Histogram: 1 0 0 0 0 0 0 0 0 0

Total # of neighbors = 20360800
Ave neighs/atom = 83.7204
Neighbor list builds = 0
Dangerous builds = 0
#
###dump 0 all cfg 10 all.*.cfg mass type xs ys zs id
###dump_modify 0 element Fe Fe Fe Fe
#dump_modify 0 element Fe Fe Fe Fe Cu
#

fix 2 source move wiggle 0.1 0.0 0.0 2.0
#
run 800
WARNING: One or more atoms are time integrated more than once (../modify.cpp:289)
0 0.712064786136287 540.370066999994 0 2831075.71001785 -1001849.45750662
Per MPI rank memory allocation (min/avg/max) = 166.7 | 166.7 | 166.7 Mbytes
Step Temp E_pair E_mol TotEng Press Volume 
      17            0   -1001849.5            0   -1001849.5   -310.07715    2831075.7 
0.01 0.7152058620441 540.370066999994 0.00688803868228118 2831075.71001785 -1001849.22875294
      18 0.0068880387   -1001849.4            0   -1001849.2   -303.51783    2831075.7 
0.02 0.718343838089219 540.370066999995 0.00662857537900373 2831075.71001785 -1001849.20390419
      19 0.0066285754   -1001849.4            0   -1001849.2    -297.0666    2831075.7 
0.03 0.721475617468138 540.370066999995 0.00668615599961033 2831075.71001785 -1001849.15691266
      20  0.006686156   -1001849.4            0   -1001849.2   -290.63938    2831075.7 
0.04 0.724598109492718 540.370066999994 0.00722554322933055 2831075.71001785 -1001849.09176437
      21 0.0072255432   -1001849.3            0   -1001849.1   -284.23717    2831075.7 
0.05 0.72770823264031 540.370066999994 0.00827506494130187 2831075.71001785 -1001849.01330288
      22 0.0082750649   -1001849.3            0     -1001849   -277.86345    2831075.7 
0.06 0.730802917594859 540.370066999994 0.00970760956193132 2831075.71001785 -1001848.92651075
      23 0.0097076096   -1001849.2            0   -1001848.9   -271.52505    2831075.7 
0.07 0.733879110275941 540.370066999994 0.0113103933685523 2831075.71001785 -1001848.83599361
      24  0.011310393   -1001849.2            0   -1001848.8    -265.2305    2831075.7 
0.08 0.736933774852772 540.370066999995 0.0128885040885164 2831075.71001785 -1001848.74560648
      25  0.012888504   -1001849.2            0   -1001848.7   -258.98733    2831075.7 
0.09 0.73996389674021 540.370066999994 0.0143346080860907 2831075.71001785 -1001848.65822082
      26  0.014334608   -1001849.1            0   -1001848.7   -252.80049    2831075.7 
0.1 0.742966485573781 540.370066999994 0.0156326037407208 2831075.71001785 -1001848.57552813
      27  0.015632604   -1001849.1            0   -1001848.6   -246.67287    2831075.7 
0.11 0.745938578160816 540.370066999994 0.0168134343085467 2831075.71001785 -1001848.49805987
      28  0.016813434     -1001849            0   -1001848.5    -240.6072    2831075.7 
0.12 0.748877241404755 540.370066999994 0.0179080061615027 2831075.71001785 -1001848.42535345
      29  0.017908006     -1001849            0   -1001848.4    -234.6074    2831075.7 
0.13 0.751779575199765 540.370066999995 0.0189304502325591 2831075.71001785 -1001848.35632475
      30   0.01893045     -1001849            0   -1001848.4   -228.67921    2831075.7 
0.14 0.754642715292794 540.370066999994 0.0198911740699738 2831075.71001785 -1001848.28973135
      31  0.019891174   -1001848.9            0   -1001848.3   -222.82942    2831075.7 
0.15 0.757463836110242 540.370066999994 0.0208141609764338 2831075.71001785 -1001848.22456413
      32  0.020814161   -1001848.9            0   -1001848.2   -217.06483    2831075.7 
0.16 0.760240153546458 540.370066999994 0.0217352969285618 2831075.71001785 -1001848.16027022
      33  0.021735297   -1001848.8            0   -1001848.2   -211.39166    2831075.7 
0.17 0.762968927711324 540.370066999994 0.0226814198417036 2831075.71001785 -1001848.09679854
      34   0.02268142   -1001848.8            0   -1001848.1   -205.81593    2831075.7 
0.18 0.765647465634186 540.370066999995 0.0236500556558192 2831075.71001785 -1001848.03449091
      35  0.023650056   -1001848.8            0     -1001848   -200.34416    2831075.7 
0.19 0.7682731239215 540.370066999994 0.0246092127308956 2831075.71001785 -1001847.97394947
      36  0.024609213   -1001848.7            0     -1001848   -194.98292    2831075.7 
0.2 0.770843311365534 540.370066999994 0.0255179185750889 2831075.71001785 -1001847.91588998
      37  0.025517919   -1001848.7            0   -1001847.9   -189.73837    2831075.7 
0.21 0.773355491501583 540.370066999994 0.026350112092645 2831075.71001785 -1001847.86095023
      38  0.026350112   -1001848.7            0   -1001847.9   -184.61556    2831075.7 
0.22 0.775807185111156 540.370066999994 0.0271035197096567 2831075.71001785 -1001847.80959594
      39   0.02710352   -1001848.7            0   -1001847.8   -179.61839    2831075.7 
0.23 0.778195972668652 540.370066999994 0.0277901875677897 2831075.71001785 -1001847.76197652
      40  0.027790188   -1001848.6            0   -1001847.8   -174.75029    2831075.7 
0.24 0.780519496729156 540.370066999994 0.0284210657493364 2831075.71001785 -1001847.71796144
      41  0.028421066   -1001848.6            0   -1001847.7   -170.01492    2831075.7 
0.25 0.78277546425494 540.370066999994 0.02899938894036 2831075.71001785 -1001847.6771904
      42  0.028999389   -1001848.6            0   -1001847.7   -165.41647    2831075.7 
0.26 0.784961648878428 540.370066999994 0.0295263817720396 2831075.71001785 -1001847.6392212
      43  0.029526382   -1001848.6            0   -1001847.6   -160.95961    2831075.7 
0.27 0.787075893099333 540.370066999993 0.0300101271290518 2831075.71001785 -1001847.60365458
      44  0.030010127   -1001848.5            0   -1001847.6   -156.64891    2831075.7 
0.28 0.789116110413865 540.370066999994 0.0304662816460981 2831075.71001785 -1001847.57024921
      45  0.030466282   -1001848.5            0   -1001847.6   -152.48884    2831075.7 
0.29 0.791080287373855 540.370066999994 0.0309086394319198 2831075.71001785 -1001847.53892611
      46  0.030908639   -1001848.5            0   -1001847.5   -148.48391    2831075.7 
0.3 0.792966485573781 540.370066999994 0.0313383904156946 2831075.71001785 -1001847.50974555
      47   0.03133839   -1001848.5            0   -1001847.5   -144.63875    2831075.7 
0.31 0.794772843563743 540.370066999994 0.0317426444430488 2831075.71001785 -1001847.48287211
      48  0.031742644   -1001848.5            0   -1001847.5   -140.95817    2831075.7 
0.32 0.796497578686488 540.370066999994 0.0321041003018762 2831075.71001785 -1001847.45845305
      49    0.0321041   -1001848.5            0   -1001847.5   -137.44666    2831075.7 
0.33 0.79813898883668 540.370066999994 0.032413429194816 2831075.71001785 -1001847.43662796
      50  0.032413429   -1001848.5            0   -1001847.4    -134.1079    2831075.7 
0.34 0.799695454140673 540.370066999994 0.0326739223992097 2831075.71001785 -1001847.41744299
      51  0.032673922   -1001848.4            0   -1001847.4   -130.94483    2831075.7 
0.35 0.801165438555122 540.370066999994 0.0328956592492833 2831075.71001785 -1001847.40085087
      52  0.032895659   -1001848.4            0   -1001847.4   -127.95983    2831075.7 
0.36 0.802547491382889 540.370066999994 0.0330860239566655 2831075.71001785 -1001847.3866795
      53  0.033086024   -1001848.4            0   -1001847.4   -125.15516    2831075.7 
0.37 0.803840248704684 540.370066999994 0.0332457519656077 2831075.71001785 -1001847.37466245
      54  0.033245752   -1001848.4            0   -1001847.4   -122.53334    2831075.7 
0.38 0.805042434725111 540.370066999993 0.0333732429402492 2831075.71001785 -1001847.3645047
      55  0.033373243   -1001848.4            0   -1001847.4    -120.0968    2831075.7 
0.39 0.806152863031708 540.370066999994 0.033471506017852 2831075.71001785 -1001847.35593821
      56  0.033471506   -1001848.4            0   -1001847.4   -117.84789    2831075.7 
0.4 0.807170437765802 540.370066999994 0.0335499336318384 2831075.71001785 -1001847.34876021
      57  0.033549934   -1001848.4            0   -1001847.3   -115.78868    2831075.7 
0.41 0.808094154703981 540.370066999993 0.0336187850034828 2831075.71001785 -1001847.34286718
      58  0.033618785   -1001848.4            0   -1001847.3   -113.92111    2831075.7 
0.42 0.808923102249149 540.370066999994 0.0336818114956899 2831075.71001785 -1001847.33815419
      59  0.033681811   -1001848.4            0   -1001847.3   -112.24728    2831075.7 
0.43 0.80965646233016 540.370066999994 0.0337343826486531 2831075.71001785 -1001847.3345469
      60  0.033734383   -1001848.4            0   -1001847.3    -110.7693    2831075.7 
0.44 0.810293511209155 540.370066999994 0.0337691061005896 2831075.71001785 -1001847.33193234
      61  0.033769106   -1001848.4            0   -1001847.3   -109.48913    2831075.7 
0.45 0.8108336201958 540.370066999994 0.0337837471108654 2831075.71001785 -1001847.33019529
      62  0.033783747   -1001848.4            0   -1001847.3   -108.40827    2831075.7 
0.46 0.811276256267733 540.370066999994 0.0337842576780604 2831075.71001785 -1001847.32920694
      63  0.033784258   -1001848.4            0   -1001847.3   -107.52764    2831075.7 
0.47 0.811620982596594 540.370066999994 0.0337806246929617 2831075.71001785 -1001847.32878894
      64  0.033780625   -1001848.4            0   -1001847.3   -106.84781    2831075.7 
0.48 0.811867458979113 540.370066999993 0.0337799848189537 2831075.71001785 -1001847.32873886
      65  0.033779985   -1001848.4            0   -1001847.3   -106.36929    2831075.7 
0.49 0.81201544217286 540.370066999993 0.0337835164101468 2831075.71001785 -1001847.32883332
      66  0.033783516   -1001848.4            0   -1001847.3   -106.09258    2831075.7 
0.5 0.812064786136286 540.370066999994 0.0337893986768785 2831075.71001785 -1001847.32885885
      67  0.033789399   -1001848.4            0   -1001847.3   -106.01819    2831075.7 
0.51 0.81201544217286 540.370066999994 0.0337981230078137 2831075.71001785 -1001847.32864218
      68  0.033798123   -1001848.4            0   -1001847.3   -106.14635    2831075.7 
0.52 0.811867458979113 540.370066999994 0.0338145694813863 2831075.71001785 -1001847.32803917
      69  0.033814569   -1001848.4            0   -1001847.3   -106.47695    2831075.7 
0.53 0.811620982596594 540.370066999994 0.0338450344544666 2831075.71001785 -1001847.32691214
      70  0.033845034   -1001848.4            0   -1001847.3   -107.00961    2831075.7 
0.54 0.811276256267733 540.370066999994 0.033892714614972 2831075.71001785 -1001847.32511235
      71  0.033892715   -1001848.4            0   -1001847.3   -107.74379    2831075.7 
0.55 0.8108336201958 540.370066999994 0.0339566354023561 2831075.71001785 -1001847.32246048
      72  0.033956635   -1001848.4            0   -1001847.3   -108.67875    2831075.7 
0.56 0.810293511209155 540.370066999994 0.0340353017186802 2831075.71001785 -1001847.31878387
      73  0.034035302   -1001848.4            0   -1001847.3   -109.81345    2831075.7 
0.57 0.80965646233016 540.370066999994 0.0341313546210474 2831075.71001785 -1001847.31386803
      74  0.034131355   -1001848.4            0   -1001847.3   -111.14635    2831075.7 
0.58 0.808923102249149 540.370066999993 0.0342523666861127 2831075.71001785 -1001847.30753046
      75  0.034252367   -1001848.4            0   -1001847.3   -112.67544    2831075.7 
0.59 0.808094154703981 540.370066999993 0.0344067222015733 2831075.71001785 -1001847.29958043
      76  0.034406722   -1001848.4            0   -1001847.3   -114.39846    2831075.7 
0.6 0.807170437765802 540.370066999993 0.0345984097601586 2831075.71001785 -1001847.28986432
      77   0.03459841   -1001848.4            0   -1001847.3   -116.31317    2831075.7 
0.61 0.806152863031708 540.370066999994 0.0348256153269525 2831075.71001785 -1001847.27826981
      78  0.034825615   -1001848.4            0   -1001847.3   -118.41747    2831075.7 
0.62 0.805042434725111 540.370066999994 0.0350842646182712 2831075.71001785 -1001847.26470392
      79  0.035084265   -1001848.4            0   -1001847.3   -120.70931    2831075.7 
0.63 0.803840248704684 540.370066999994 0.0353729398494377 2831075.71001785 -1001847.24910867
      80   0.03537294   -1001848.4            0   -1001847.2   -123.18655    2831075.7 
0.64 0.802547491382889 540.370066999993 0.0356945375492432 2831075.71001785 -1001847.23143422
      81  0.035694538   -1001848.4            0   -1001847.2   -125.84688    2831075.7 
0.65 0.801165438555122 540.370066999993 0.0360535205379171 2831075.71001785 -1001847.21161086
      82  0.036053521   -1001848.3            0   -1001847.2   -128.68785    2831075.7 
0.66 0.799695454140673 540.370066999994 0.0364520442266599 2831075.71001785 -1001847.18956081
      83  0.036452044   -1001848.3            0   -1001847.2   -131.70701    2831075.7 
0.67 0.79813898883668 540.370066999994 0.0368891737688285 2831075.71001785 -1001847.16514343
      84  0.036889174   -1001848.3            0   -1001847.2    -134.9018    2831075.7 
0.68 0.796497578686488 540.370066999993 0.0373640092463317 2831075.71001785 -1001847.13818941
      85  0.037364009   -1001848.3            0   -1001847.1    -138.2694    2831075.7 
0.69 0.794772843563743 540.370066999993 0.037879329749324 2831075.71001785 -1001847.10855058
      86   0.03787933   -1001848.3            0   -1001847.1   -141.80664    2831075.7 
0.7 0.792966485573781 540.370066999993 0.0384416482135401 2831075.71001785 -1001847.07609769
      87  0.038441648   -1001848.3            0   -1001847.1    -145.5099    2831075.7 
0.71 0.791080287373855 540.370066999993 0.0390570853910527 2831075.71001785 -1001847.04076281
      88  0.039057085   -1001848.3            0     -1001847    -149.3754    2831075.7 
0.72 0.789116110413865 540.370066999994 0.0397266921768804 2831075.71001785 -1001847.00253381
      89  0.039726692   -1001848.3            0     -1001847   -153.39943    2831075.7 
0.73 0.787075893099333 540.370066999994 0.0404455444792368 2831075.71001785 -1001846.96143362
      90  0.040445544   -1001848.2            0     -1001847   -157.57832    2831075.7 
0.74 0.784961648878428 540.370066999993 0.0412064358339877 2831075.71001785 -1001846.91754185
      91  0.041206436   -1001848.2            0   -1001846.9   -161.90854    2831075.7 
0.75 0.78277546425494 540.370066999993 0.0420047741602835 2831075.71001785 -1001846.87094667
      92  0.042004774   -1001848.2            0   -1001846.9   -166.38638    2831075.7 
0.76 0.780519496729156 540.370066999993 0.0428404308694407 2831075.71001785 -1001846.82175589
      93  0.042840431   -1001848.2            0   -1001846.8   -171.00795    2831075.7 
0.77 0.778195972668652 540.370066999994 0.0437154794356931 2831075.71001785 -1001846.77003396
      94  0.043715479   -1001848.1            0   -1001846.8   -175.76922    2831075.7 
0.78 0.775807185111156 540.370066999993 0.044630723695721 2831075.71001785 -1001846.71578729
      95  0.044630724   -1001848.1            0   -1001846.7   -180.66597    2831075.7 
0.79 0.773355491501583 540.370066999993 0.0455847551623167 2831075.71001785 -1001846.65896872
      96  0.045584755   -1001848.1            0   -1001846.7   -185.69377    2831075.7 
0.8 0.770843311365534 540.370066999993 0.0465763172348108 2831075.71001785 -1001846.59950739
      97  0.046576317   -1001848.1            0   -1001846.6   -190.84787    2831075.7 
0.81 0.7682731239215 540.370066999993 0.0476071049549267 2831075.71001785 -1001846.53736117
      98  0.047607105     -1001848            0   -1001846.5   -196.12291    2831075.7 
0.82 0.765647465634186 540.370066999993 0.0486815305578267 2831075.71001785 -1001846.47251214
      99  0.048681531     -1001848            0   -1001846.5   -201.51308    2831075.7 
0.83 0.762968927711324 540.370066999994 0.0498030400325023 2831075.71001785 -1001846.4050176
     100   0.04980304     -1001848            0   -1001846.4   -207.01228    2831075.7 
0.84 0.760240153546458 540.370066999993 0.0509701593356219 2831075.71001785 -1001846.33499323
     101  0.050970159   -1001847.9            0   -1001846.3   -212.61422    2831075.7 
0.85 0.757463836110242 540.370066999993 0.0521759499245225 2831075.71001785 -1001846.26260218
     102   0.05217595   -1001847.9            0   -1001846.3   -218.31281    2831075.7 
0.86 0.754642715292794 540.370066999993 0.0534114637371448 2831075.71001785 -1001846.1880731
     103  0.053411464   -1001847.9            0   -1001846.2   -224.10196    2831075.7 
0.87 0.751779575199765 540.370066999993 0.0546701670200613 2831075.71001785 -1001846.11163357
     104  0.054670167   -1001847.8            0   -1001846.1   -229.97561    2831075.7 
0.88 0.748877241404755 540.370066999993 0.0559496532707288 2831075.71001785 -1001846.03349435
     105  0.055949653   -1001847.8            0     -1001846   -235.92784    2831075.7 
0.89 0.745938578160816 540.370066999993 0.0572497736317206 2831075.71001785 -1001845.95383805
     106  0.057249774   -1001847.8            0     -1001846   -241.95281    2831075.7 
0.9 0.742966485573781 540.370066999993 0.0585696918226732 2831075.71001785 -1001845.87276548
     107  0.058569692   -1001847.7            0   -1001845.9   -248.04492    2831075.7 
0.91 0.73996389674021 540.370066999992 0.0599070216728401 2831075.71001785 -1001845.79034803
     108  0.059907022   -1001847.7            0   -1001845.8   -254.19881    2831075.7 
0.92 0.736933774852772 540.370066999993 0.0612596555664194 2831075.71001785 -1001845.7066173
     109  0.061259656   -1001847.6            0   -1001845.7   -260.40906    2831075.7 
0.93 0.733879110275941 540.370066999994 0.0626278640586913 2831075.71001785 -1001845.62161707
     110  0.062627864   -1001847.6            0   -1001845.6   -266.67011    2831075.7 
0.94 0.730802917594859 540.370066999994 0.064013862931109 2831075.71001785 -1001845.53545549
     111  0.064013863   -1001847.5            0   -1001845.5   -272.97619    2831075.7 
0.95 0.72770823264031 540.370066999993 0.0654186718741869 2831075.71001785 -1001845.44825921
     112  0.065418672   -1001847.5            0   -1001845.4   -279.32123    2831075.7 
0.96 0.724598109492718 540.370066999992 0.0668390111540144 2831075.71001785 -1001845.36023874
     113  0.066839011   -1001847.5            0   -1001845.4   -285.69912    2831075.7 
0.97 0.721475617468138 540.370066999993 0.0682672065965634 2831075.71001785 -1001845.27164947
     114  0.068267207   -1001847.4            0   -1001845.3    -292.1036    2831075.7 
0.98 0.718343838089219 540.370066999993 0.0696943579768859 2831075.71001785 -1001845.18275689
     115  0.069694358   -1001847.4            0   -1001845.2   -298.52818    2831075.7 
0.99 0.7152058620441 540.370066999993 0.0711140660911415 2831075.71001785 -1001845.09382936
     116  0.071114066   -1001847.3            0   -1001845.1   -304.96622    2831075.7 
1 0.712064786136287 540.370066999992 0.0725236873551732 2831075.71001785 -1001845.00511948
     117  0.072523687   -1001847.3            0     -1001845    -311.4108    2831075.7 
1.01 0.708923710228474 540.370066999992 0.0739225869855541 2831075.71001785 -1001844.91681337
     118  0.073922587   -1001847.2            0   -1001844.9   -317.85497    2831075.7 
1.02 0.705785734183356 540.370066999993 0.0753096300252789 2831075.71001785 -1001844.82904742
     119   0.07530963   -1001847.2            0   -1001844.8   -324.29196    2831075.7 
1.03 0.702653954804435 540.370066999994 0.0766825039501544 2831075.71001785 -1001844.74192871
     120  0.076682504   -1001847.2            0   -1001844.7   -330.71508    2831075.7 
1.04 0.699531462779857 540.370066999993 0.0780392171085755 2831075.71001785 -1001844.65550531
     121  0.078039217   -1001847.1            0   -1001844.7   -337.11793    2831075.7 
1.05 0.696421339632264 540.370066999993 0.0793796739057651 2831075.71001785 -1001844.56985702
     122  0.079379674   -1001847.1            0   -1001844.6   -343.49417    2831075.7 
1.06 0.693326654677715 540.370066999992 0.0807051159015968 2831075.71001785 -1001844.48510555
     123  0.080705116     -1001847            0   -1001844.5   -349.83759    2831075.7 
1.07 0.690250461996633 540.370066999993 0.0820155051250723 2831075.71001785 -1001844.40140959
     124  0.082015505     -1001847            0   -1001844.4   -356.14226    2831075.7 
1.08 0.687195797419802 540.370066999993 0.083307228149271 2831075.71001785 -1001844.31897047
     125  0.083307228   -1001846.9            0   -1001844.3   -362.40239    2831075.7 
1.09 0.684165675532364 540.370066999993 0.0845734319660964 2831075.71001785 -1001844.23801441
     126  0.084573432   -1001846.9            0   -1001844.2   -368.61238    2831075.7 
1.1 0.681163086698793 540.370066999993 0.0858069008224673 2831075.71001785 -1001844.15876312
     127  0.085806901   -1001846.9            0   -1001844.2   -374.76666    2831075.7 
1.11 0.678190994111759 540.370066999992 0.0870030550973825 2831075.71001785 -1001844.08142494
     128  0.087003055   -1001846.8            0   -1001844.1   -380.85945    2831075.7 
1.12 0.67525233086782 540.370066999993 0.088160665782136 2831075.71001785 -1001844.00618698
     129  0.088160666   -1001846.8            0     -1001844   -386.88478    2831075.7 
1.13 0.67234999707281 540.370066999993 0.0892801219272174 2831075.71001785 -1001843.93317298
     130  0.089280122   -1001846.7            0   -1001843.9   -392.83652    2831075.7 
1.14 0.66948685697978 540.370066999993 0.0903612998151644 2831075.71001785 -1001843.86244629
     131    0.0903613   -1001846.7            0   -1001843.9   -398.70844    2831075.7 
1.15 0.666665736162333 540.370066999993 0.0914031212665567 2831075.71001785 -1001843.79403808
     132  0.091403121   -1001846.7            0   -1001843.8   -404.49434    2831075.7 
1.16 0.663889418726116 540.370066999992 0.0924048684558518 2831075.71001785 -1001843.72795549
     133  0.092404868   -1001846.6            0   -1001843.7   -410.18801    2831075.7 
1.17 0.661160644561251 540.370066999992 0.0933673982767656 2831075.71001785 -1001843.66422854
     134  0.093367398   -1001846.6            0   -1001843.7    -415.7833    2831075.7 
1.18 0.658482106638388 540.370066999993 0.0942925258877337 2831075.71001785 -1001843.60290097
     135  0.094292526   -1001846.6            0   -1001843.6   -421.27428    2831075.7 
1.19 0.655856448351074 540.370066999994 0.0951808587566245 2831075.71001785 -1001843.54405382
     136  0.095180859   -1001846.5            0   -1001843.5   -426.65531    2831075.7 
1.2 0.653286260907041 540.370066999993 0.0960301450705573 2831075.71001785 -1001843.48779144
     137  0.096030145   -1001846.5            0   -1001843.5   -431.92119    2831075.7 
1.21 0.65077408077099 540.370066999992 0.0968358849515307 2831075.71001785 -1001843.43420006
     138  0.096835885   -1001846.5            0   -1001843.4   -437.06711    2831075.7 
1.22 0.648322387161418 540.370066999992 0.0975938530140314 2831075.71001785 -1001843.38340399
     139  0.097593853   -1001846.5            0   -1001843.4   -442.08857    2831075.7 
1.23 0.645933599603922 540.370066999993 0.0983023942587436 2831075.71001785 -1001843.33548063
     140  0.098302394   -1001846.4            0   -1001843.3   -446.98115    2831075.7 
1.24 0.643610075543419 540.370066999993 0.0989626356089629 2831075.71001785 -1001843.29045214
     141  0.098962636   -1001846.4            0   -1001843.3   -451.74045    2831075.7 
1.25 0.641354108017634 540.370066999993 0.0995767703370264 2831075.71001785 -1001843.24833277
     142   0.09957677   -1001846.4            0   -1001843.2   -456.36207    2831075.7 
1.26 0.639167923394147 540.370066999993 0.100146283209234 2831075.71001785 -1001843.20906268
     143   0.10014628   -1001846.4            0   -1001843.2   -460.84155    2831075.7 
1.27 0.637053679173241 540.370066999992 0.100671766920649 2831075.71001785 -1001843.17256867
     144   0.10067177   -1001846.3            0   -1001843.2   -465.17441    2831075.7 
1.28 0.635013461858709 540.370066999993 0.101154172290987 2831075.71001785 -1001843.13876487
     145   0.10115417   -1001846.3            0   -1001843.1   -469.35606    2831075.7 
1.29 0.633049284898719 540.370066999993 0.101595819310628 2831075.71001785 -1001843.10757041
     146   0.10159582   -1001846.3            0   -1001843.1   -473.38186    2831075.7 
1.3 0.631163086698793 540.370066999993 0.101999811370856 2831075.71001785 -1001843.07891248
     147   0.10199981   -1001846.3            0   -1001843.1   -477.24726    2831075.7 
1.31 0.629356728708832 540.370066999992 0.102368259478704 2831075.71001785 -1001843.05274815
     148   0.10236826   -1001846.3            0   -1001843.1   -480.94793    2831075.7 
1.32 0.627631993586086 540.370066999992 0.102701085410143 2831075.71001785 -1001843.02904017
     149   0.10270109   -1001846.3            0     -1001843   -484.47996    2831075.7 
1.33 0.625990583435894 540.370066999992 0.102996723507013 2831075.71001785 -1001843.00774588
     150   0.10299672   -1001846.2            0     -1001843   -487.83988    2831075.7 
1.34 0.624434118131902 540.370066999993 0.103254218658924 2831075.71001785 -1001842.98881527
     151   0.10325422   -1001846.2            0     -1001843    -491.0246    2831075.7 
1.35 0.622964133717451 540.370066999993 0.103474871523927 2831075.71001785 -1001842.97216829
     152   0.10347487   -1001846.2            0     -1001843   -494.03136    2831075.7 
1.36 0.621582080889686 540.370066999993 0.103662043808602 2831075.71001785 -1001842.95770912
     153   0.10366204   -1001846.2            0     -1001843   -496.85764    2831075.7 
1.37 0.62028932356789 540.370066999992 0.103819497295984 2831075.71001785 -1001842.94531529
     154    0.1038195   -1001846.2            0   -1001842.9   -499.50109    2831075.7 
1.38 0.619087137547462 540.370066999992 0.103949950314927 2831075.71001785 -1001842.93483228
     155   0.10394995   -1001846.2            0   -1001842.9   -501.95953    2831075.7 
1.39 0.617976709240865 540.370066999993 0.10405514439216 2831075.71001785 -1001842.92609159
     156   0.10405514   -1001846.2            0   -1001842.9   -504.23078    2831075.7 
1.4 0.616959134506773 540.370066999993 0.104137095518657 2831075.71001785 -1001842.91893065
     157    0.1041371   -1001846.2            0   -1001842.9   -506.31266    2831075.7 
1.41 0.616035417568594 540.370066999992 0.104199026100433 2831075.71001785 -1001842.91317919
     158   0.10419903   -1001846.2            0   -1001842.9   -508.20287    2831075.7 
1.42 0.615206470023425 540.370066999992 0.104244886239424 2831075.71001785 -1001842.90868895
     159   0.10424489   -1001846.2            0   -1001842.9   -509.89909    2831075.7 
1.43 0.614473109942413 540.370066999992 0.104277911085541 2831075.71001785 -1001842.90532574
     160   0.10427791   -1001846.2            0   -1001842.9   -511.39917    2831075.7 
1.44 0.61383606106342 540.370066999993 0.104299724556573 2831075.71001785 -1001842.90293533
     161   0.10429972   -1001846.2            0   -1001842.9   -512.70122    2831075.7 
1.45 0.613295952076774 540.370066999993 0.104310990101249 2831075.71001785 -1001842.90136368
     162   0.10431099   -1001846.2            0   -1001842.9   -513.80368    2831075.7 
1.46 0.612853316004841 540.370066999993 0.104313062216384 2831075.71001785 -1001842.9004465
     163   0.10431306   -1001846.2            0   -1001842.9   -514.70541    2831075.7 
1.47 0.61250858967598 540.370066999993 0.104309081059516 2831075.71001785 -1001842.9000383
     164   0.10430908   -1001846.2            0   -1001842.9   -515.40559    2831075.7 
1.48 0.612262113293462 540.370066999992 0.10430348590403 2831075.71001785 -1001842.89995664
     165   0.10430349   -1001846.2            0   -1001842.9   -515.90378    2831075.7 
1.49 0.612114130099715 540.370066999993 0.104300449889578 2831075.71001785 -1001842.90001801
     166   0.10430045   -1001846.2            0   -1001842.9   -516.19989    2831075.7 
1.5 0.612064786136288 540.370066999994 0.104302729377568 2831075.71001785 -1001842.9000375
     167   0.10430273   -1001846.2            0   -1001842.9   -516.29406    2831075.7 
1.51 0.612114130099715 540.370066999993 0.104311937366174 2831075.71001785 -1001842.89983024
     168   0.10431194   -1001846.2            0   -1001842.9   -516.18667    2831075.7 
1.52 0.612262113293462 540.370066999992 0.104329823909329 2831075.71001785 -1001842.89922919
     169   0.10432982   -1001846.2            0   -1001842.9   -515.87811    2831075.7 
1.53 0.61250858967598 540.370066999992 0.104359204204667 2831075.71001785 -1001842.8980639
     170    0.1043592   -1001846.2            0   -1001842.9    -515.3687    2831075.7 
1.54 0.612853316004841 540.370066999992 0.104403626161382 2831075.71001785 -1001842.89617435
     171   0.10440363   -1001846.2            0   -1001842.9   -514.65879    2831075.7 
1.55 0.613295952076774 540.370066999993 0.104466206827971 2831075.71001785 -1001842.89341677
     172   0.10446621   -1001846.2            0   -1001842.9   -513.74873    2831075.7 
1.56 0.61383606106342 540.370066999993 0.104548916783821 2831075.71001785 -1001842.88961038
     173   0.10454892   -1001846.2            0   -1001842.9   -512.63903    2831075.7 
1.57 0.614473109942413 540.370066999993 0.10465310373456 2831075.71001785 -1001842.88459743
     174    0.1046531   -1001846.2            0   -1001842.9   -511.33047    2831075.7 
1.58 0.615206470023425 540.370066999992 0.104780737864363 2831075.71001785 -1001842.87820738
     175   0.10478074   -1001846.2            0   -1001842.9   -509.82406    2831075.7 
1.59 0.616035417568594 540.370066999992 0.104935083979921 2831075.71001785 -1001842.8702823
     176   0.10493508   -1001846.2            0   -1001842.9   -508.12115    2831075.7 
1.6 0.616959134506773 540.370066999994 0.105120044494401 2831075.71001785 -1001842.8606577
     177   0.10512004   -1001846.2            0   -1001842.9   -506.22344    2831075.7 
1.61 0.617976709240865 540.370066999993 0.105338718081778 2831075.71001785 -1001842.84919904
     178   0.10533872   -1001846.2            0   -1001842.8     -504.133    2831075.7 
1.62 0.619087137547462 540.370066999992 0.105592487470047 2831075.71001785 -1001842.83578506
     179   0.10559249   -1001846.2            0   -1001842.8   -501.85229    2831075.7 
1.63 0.62028932356789 540.370066999992 0.105881441159552 2831075.71001785 -1001842.82031111
     180   0.10588144   -1001846.1            0   -1001842.8     -499.384    2831075.7 
1.64 0.621582080889686 540.370066999992 0.106205675532799 2831075.71001785 -1001842.80268064
     181   0.10620568   -1001846.1            0   -1001842.8   -496.73098    2831075.7 
1.65 0.622964133717451 540.370066999993 0.106566252315118 2831075.71001785 -1001842.78281919
     182   0.10656625   -1001846.1            0   -1001842.8   -493.89606    2831075.7 
1.66 0.624434118131902 540.370066999993 0.10696501877867 2831075.71001785 -1001842.76063853
     183   0.10696502   -1001846.1            0   -1001842.8   -490.88204    2831075.7 
1.67 0.625990583435894 540.370066999993 0.107403664882811 2831075.71001785 -1001842.73607092
     184   0.10740366   -1001846.1            0   -1001842.7   -487.69179    2831075.7 
1.68 0.627631993586086 540.370066999993 0.107883108649889 2831075.71001785 -1001842.70901914
     185   0.10788311   -1001846.1            0   -1001842.7   -484.32819    2831075.7 
1.69 0.629356728708832 540.370066999992 0.108403868515657 2831075.71001785 -1001842.67939606
     186   0.10840387   -1001846.1            0   -1001842.7   -480.79424    2831075.7 
1.7 0.631163086698793 540.370066999993 0.108966979671581 2831075.71001785 -1001842.64711002
     187   0.10896698   -1001846.1            0   -1001842.6   -477.09312    2831075.7 
1.71 0.633049284898719 540.370066999993 0.109574381754756 2831075.71001785 -1001842.6120786
     188   0.10957438   -1001846.1            0   -1001842.6   -473.22817    2831075.7 
1.72 0.635013461858708 540.370066999993 0.110228195818288 2831075.71001785 -1001842.57426297
     189    0.1102282     -1001846            0   -1001842.6   -469.20308    2831075.7 
1.73 0.637053679173241 540.370066999992 0.110929422385087 2831075.71001785 -1001842.53363556
     190   0.11092942     -1001846            0   -1001842.5   -465.02185    2831075.7 
1.74 0.639167923394147 540.370066999992 0.111677209206331 2831075.71001785 -1001842.49018563
     191   0.11167721     -1001846            0   -1001842.5   -460.68881    2831075.7 
1.75 0.641354108017634 540.370066999993 0.11246935443298 2831075.71001785 -1001842.44395487
     192   0.11246935     -1001846            0   -1001842.4   -456.20864    2831075.7 
1.76 0.643610075543419 540.370066999993 0.113303604077291 2831075.71001785 -1001842.3949875
     193    0.1133036     -1001846            0   -1001842.4   -451.58613    2831075.7 
1.77 0.645933599603922 540.370066999993 0.114178635952607 2831075.71001785 -1001842.3433199
     194   0.11417864   -1001845.9            0   -1001842.3   -446.82616    2831075.7 
1.78 0.648322387161418 540.370066999993 0.115094011890415 2831075.71001785 -1001842.28902914
     195   0.11509401   -1001845.9            0   -1001842.3   -441.93359    2831075.7 
1.79 0.65077408077099 540.370066999992 0.116049401573746 2831075.71001785 -1001842.23213928
     196    0.1160494   -1001845.9            0   -1001842.2   -436.91323    2831075.7 
1.8 0.653286260907041 540.370066999993 0.117044017248486 2831075.71001785 -1001842.17270187
     197   0.11704402   -1001845.9            0   -1001842.2   -431.76994    2831075.7 
1.81 0.655856448351074 540.370066999994 0.118076846451295 2831075.71001785 -1001842.11072631
     198   0.11807685   -1001845.8            0   -1001842.1   -426.50856    2831075.7 
1.82 0.658482106638388 540.370066999993 0.119147328479225 2831075.71001785 -1001842.04623576
     199   0.11914733   -1001845.8            0     -1001842   -421.13395    2831075.7 
1.83 0.661160644561251 540.370066999992 0.120255578154423 2831075.71001785 -1001841.97928334
     200   0.12025558   -1001845.8            0     -1001842   -415.65113    2831075.7 
1.84 0.663889418726116 540.370066999992 0.121401679497304 2831075.71001785 -1001841.9099363
     201   0.12140168   -1001845.7            0   -1001841.9   -410.06521    2831075.7 
1.85 0.666665736162333 540.370066999992 0.122584525925261 2831075.71001785 -1001841.83830064
     202   0.12258453   -1001845.7            0   -1001841.8    -404.3816    2831075.7 
1.86 0.66948685697978 540.370066999993 0.123801213598157 2831075.71001785 -1001841.76450426
     203   0.12380121   -1001845.7            0   -1001841.8   -398.60604    2831075.7 
1.87 0.67234999707281 540.370066999993 0.125047565585242 2831075.71001785 -1001841.68869312
     204   0.12504757   -1001845.6            0   -1001841.7   -392.74443    2831075.7 
1.88 0.67525233086782 540.370066999993 0.126319385091971 2831075.71001785 -1001841.6110463
     205   0.12631939   -1001845.6            0   -1001841.6   -386.80291    2831075.7 
1.89 0.678190994111759 540.370066999992 0.127613439807441 2831075.71001785 -1001841.53172809
     206   0.12761344   -1001845.5            0   -1001841.5   -380.78766    2831075.7 
1.9 0.681163086698793 540.370066999992 0.128927507627813 2831075.71001785 -1001841.45091614
     207   0.12892751   -1001845.5            0   -1001841.5   -374.70478    2831075.7 
1.91 0.684165675532364 540.370066999993 0.130259715925012 2831075.71001785 -1001841.36873746
     208   0.13025972   -1001845.5            0   -1001841.4   -368.56044    2831075.7 
1.92 0.687195797419802 540.370066999993 0.131607996818606 2831075.71001785 -1001841.28532848
     209     0.131608   -1001845.4            0   -1001841.3   -362.36065    2831075.7 
1.93 0.690250461996632 540.370066999992 0.132970206718359 2831075.71001785 -1001841.2008071
     210   0.13297021   -1001845.4            0   -1001841.2    -356.1114    2831075.7 
1.94 0.693326654677715 540.370066999992 0.134344644196856 2831075.71001785 -1001841.11527768
     211   0.13434464   -1001845.3            0   -1001841.1   -349.81862    2831075.7 
1.95 0.696421339632264 540.370066999992 0.135730206761633 2831075.71001785 -1001841.02887203
     212   0.13573021   -1001845.3            0     -1001841   -343.48818    2831075.7 
1.96 0.699531462779857 540.370066999993 0.137125755228414 2831075.71001785 -1001840.94173018
     213   0.13712576   -1001845.3            0   -1001840.9   -337.12604    2831075.7 
1.97 0.702653954804435 540.370066999993 0.138529092821132 2831075.71001785 -1001840.85403355
     214   0.13852909   -1001845.2            0   -1001840.9   -330.73832    2831075.7 
1.98 0.705785734183356 540.370066999993 0.139936441360325 2831075.71001785 -1001840.76596515
     215   0.13993644   -1001845.2            0   -1001840.8   -324.33128    2831075.7 
1.99 0.708923710228474 540.370066999992 0.141342937235589 2831075.71001785 -1001840.67774557
     216   0.14134294   -1001845.1            0   -1001840.7   -317.91139    2831075.7 
2 0.712064786136287 540.370066999992 0.142743800727519 2831075.71001785 -1001840.58958823
     217    0.1427438   -1001845.1            0   -1001840.6   -311.48521    2831075.7 
2.01 0.7152058620441 540.370066999993 0.144135280762313 2831075.71001785 -1001840.50170752
     218   0.14413528     -1001845            0   -1001840.5   -305.05934    2831075.7 
2.02 0.718343838089218 540.370066999993 0.145514744442645 2831075.71001785 -1001840.41428991
     219   0.14551474     -1001845            0   -1001840.4   -298.64037    2831075.7 
2.03 0.721475617468138 540.370066999993 0.146880085633657 2831075.71001785 -1001840.32752798
     220   0.14688009   -1001844.9            0   -1001840.3   -292.23475    2831075.7 
2.04 0.724598109492718 540.370066999992 0.148229184149862 2831075.71001785 -1001840.24155534
     221   0.14822918   -1001844.9            0   -1001840.2   -285.84889    2831075.7 
2.05 0.727708232640309 540.370066999992 0.149559943563063 2831075.71001785 -1001840.15648632
     222   0.14955994   -1001844.9            0   -1001840.2   -279.48903    2831075.7 
2.06 0.730802917594859 540.370066999993 0.15087071957964 2831075.71001785 -1001840.07245479
     223   0.15087072   -1001844.8            0   -1001840.1   -273.16127    2831075.7 
2.07 0.733879110275941 540.370066999993 0.152160472766776 2831075.71001785 -1001839.98957705
     224   0.15216047   -1001844.8            0     -1001840   -266.87163    2831075.7 
2.08 0.736933774852772 540.370066999993 0.15342823959853 2831075.71001785 -1001839.90799231
     225   0.15342824   -1001844.7            0   -1001839.9   -260.62599    2831075.7 
2.09 0.73996389674021 540.370066999992 0.154672245244152 2831075.71001785 -1001839.82784225
     226   0.15467225   -1001844.7            0   -1001839.8   -254.43031    2831075.7 
2.1 0.742966485573781 540.370066999992 0.155889434211308 2831075.71001785 -1001839.74929846
     227   0.15588943   -1001844.6            0   -1001839.7   -248.29063    2831075.7 
2.11 0.745938578160816 540.370066999993 0.157075904437694 2831075.71001785 -1001839.67252469
     228    0.1570759   -1001844.6            0   -1001839.7   -242.21303    2831075.7 
2.12 0.748877241404755 540.370066999993 0.15822795800797 2831075.71001785 -1001839.59768515
     229   0.15822796   -1001844.6            0   -1001839.6    -236.2037    2831075.7 
2.13 0.751779575199765 540.370066999993 0.159342963102122 2831075.71001785 -1001839.52494253
     230   0.15934296   -1001844.5            0   -1001839.5   -230.26874    2831075.7 
2.14 0.754642715292794 540.370066999992 0.160419438746407 2831075.71001785 -1001839.45443998
     231   0.16041944   -1001844.5            0   -1001839.5   -224.41419    2831075.7 
2.15 0.757463836110242 540.370066999991 0.161456490335026 2831075.71001785 -1001839.38626169
     232   0.16145649   -1001844.5            0   -1001839.4   -218.64603    2831075.7 
2.16 0.760240153546458 540.370066999992 0.16245326446228 2831075.71001785 -1001839.3204796
     233   0.16245326   -1001844.4            0   -1001839.3   -212.97004    2831075.7 
2.17 0.762968927711324 540.370066999993 0.163408937975041 2831075.71001785 -1001839.25717302
     234   0.16340894   -1001844.4            0   -1001839.3   -207.39185    2831075.7 
2.18 0.765647465634186 540.370066999993 0.164323107472013 2831075.71001785 -1001839.19635426
     235   0.16432311   -1001844.4            0   -1001839.2   -201.91691    2831075.7 
2.19 0.7682731239215 540.370066999992 0.165195984301588 2831075.71001785 -1001839.13807831
     236   0.16519598   -1001844.3            0   -1001839.1   -196.55039    2831075.7 
2.2 0.770843311365534 540.370066999992 0.166027987231684 2831075.71001785 -1001839.0823824
     237   0.16602799   -1001844.3            0   -1001839.1   -191.29738    2831075.7 
2.21 0.773355491501583 540.370066999992 0.16681898069625 2831075.71001785 -1001839.02931596
     238   0.16681898   -1001844.3            0     -1001839   -186.16284    2831075.7 
2.22 0.775807185111156 540.370066999993 0.167567846077941 2831075.71001785 -1001838.97893245
     239   0.16756785   -1001844.2            0     -1001839    -181.1517    2831075.7 
2.23 0.778195972668652 540.370066999993 0.168272839788559 2831075.71001785 -1001838.93128099
     240   0.16827284   -1001844.2            0   -1001838.9   -176.26892    2831075.7 
2.24 0.780519496729156 540.370066999992 0.168932504081902 2831075.71001785 -1001838.88641351
     241    0.1689325   -1001844.2            0   -1001838.9   -171.51937    2831075.7 
2.25 0.78277546425494 540.370066999992 0.169546410375398 2831075.71001785 -1001838.84434814
     242   0.16954641   -1001844.2            0   -1001838.8   -166.90789    2831075.7 
2.26 0.784961648878428 540.370066999992 0.170115189058574 2831075.71001785 -1001838.8050874
     243   0.17011519   -1001844.2            0   -1001838.8   -162.43921    2831075.7 
2.27 0.787075893099332 540.370066999993 0.17063996132528 2831075.71001785 -1001838.76861558
     244   0.17063996   -1001844.1            0   -1001838.8   -158.11788    2831075.7 
2.28 0.789116110413865 540.370066999993 0.171121791990913 2831075.71001785 -1001838.73489201
     245   0.17112179   -1001844.1            0   -1001838.7   -153.94832    2831075.7 
2.29 0.791080287373855 540.370066999992 0.171561661691166 2831075.71001785 -1001838.70385574
     246   0.17156166   -1001844.1            0   -1001838.7   -149.93473    2831075.7 
2.3 0.792966485573781 540.370066999991 0.171960861952626 2831075.71001785 -1001838.67542226
     247   0.17196086   -1001844.1            0   -1001838.7   -146.08105    2831075.7 
2.31 0.794772843563743 540.370066999992 0.172321255795151 2831075.71001785 -1001838.649516
     248   0.17232126   -1001844.1            0   -1001838.6   -142.39099    2831075.7 
2.32 0.796497578686488 540.370066999993 0.172644994083994 2831075.71001785 -1001838.62605013
     249   0.17264499   -1001844.1            0   -1001838.6   -138.86799    2831075.7 
2.33 0.79813898883668 540.370066999993 0.172933871970383 2831075.71001785 -1001838.60495911
     250   0.17293387     -1001844            0   -1001838.6   -135.51535    2831075.7 
2.34 0.799695454140673 540.370066999992 0.173188934673083 2831075.71001785 -1001838.58616421
     251   0.17318893     -1001844            0   -1001838.6   -132.33626    2831075.7 
2.35 0.801165438555122 540.370066999992 0.173410760509649 2831075.71001785 -1001838.56957835
     252   0.17341076     -1001844            0   -1001838.6   -129.33379    2831075.7 
2.36 0.802547491382889 540.370066999992 0.173600225425625 2831075.71001785 -1001838.55511032
     253   0.17360023     -1001844            0   -1001838.6   -126.51095    2831075.7 
2.37 0.803840248704684 540.370066999992 0.173759101632821 2831075.71001785 -1001838.54265413
     254    0.1737591     -1001844            0   -1001838.5   -123.87061    2831075.7 
2.38 0.805042434725111 540.370066999993 0.173890001949283 2831075.71001785 -1001838.5320929
     255      0.17389     -1001844            0   -1001838.5   -121.41548    2831075.7 
2.39 0.806152863031708 540.370066999992 0.173995787171488 2831075.71001785 -1001838.52329897
     256   0.17399579     -1001844            0   -1001838.5   -119.14816    2831075.7 
2.4 0.807170437765802 540.370066999992 0.174079026742807 2831075.71001785 -1001838.51611475
     257   0.17407903     -1001844            0   -1001838.5   -117.07102    2831075.7 
2.41 0.808094154703981 540.370066999992 0.174141990740135 2831075.71001785 -1001838.51037846
     258   0.17414199     -1001844            0   -1001838.5   -115.18623    2831075.7 
2.42 0.808923102249149 540.370066999993 0.174187082420838 2831075.71001785 -1001838.50594189
     259   0.17418708     -1001844            0   -1001838.5   -113.49572    2831075.7 
2.43 0.80965646233016 540.370066999993 0.174217177570696 2831075.71001785 -1001838.50262968
     260   0.17421718     -1001844            0   -1001838.5   -112.00109    2831075.7 
2.44 0.810293511209155 540.370066999993 0.17423545549616 2831075.71001785 -1001838.50028624
     261   0.17423546     -1001844            0   -1001838.5   -110.70373    2831075.7 
2.45 0.8108336201958 540.370066999992 0.174244859616722 2831075.71001785 -1001838.49875136
     262   0.17424486     -1001844            0   -1001838.5   -109.60475    2831075.7 
2.46 0.811276256267733 540.370066999991 0.174247739820782 2831075.71001785 -1001838.4978612
     263   0.17424774     -1001844            0   -1001838.5   -108.70512    2831075.7 
2.47 0.811620982596594 540.370066999992 0.174246071251422 2831075.71001785 -1001838.49745494
     264   0.17424607     -1001844            0   -1001838.5   -108.00568    2831075.7 
2.48 0.811867458979113 540.370066999993 0.174242077759878 2831075.71001785 -1001838.4973603
     265   0.17424208     -1001844            0   -1001838.5   -107.50708    2831075.7 
2.49 0.81201544217286 540.370066999992 0.174238677788592 2831075.71001785 -1001838.49740201
     266   0.17423868     -1001844            0   -1001838.5   -107.20986    2831075.7 
2.5 0.812064786136286 540.370066999992 0.174239324791505 2831075.71001785 -1001838.49740795
     267   0.17423932     -1001844            0   -1001838.5    -107.1144    2831075.7 
2.51 0.81201544217286 540.370066999991 0.174247387221462 2831075.71001785 -1001838.49720327
     268   0.17424739     -1001844            0   -1001838.5   -107.22091    2831075.7 
2.52 0.811867458979113 540.370066999993 0.174265639513095 2831075.71001785 -1001838.49660636
     269   0.17426564     -1001844            0   -1001838.5   -107.52943    2831075.7 
2.53 0.811620982596594 540.370066999993 0.174296307996515 2831075.71001785 -1001838.49544014
     270   0.17429631     -1001844            0   -1001838.5   -108.03982    2831075.7 
2.54 0.811276256267733 540.370066999993 0.174341567300341 2831075.71001785 -1001838.4935513
     271   0.17434157     -1001844            0   -1001838.5   -108.75165    2831075.7 
2.55 0.8108336201958 540.370066999992 0.174403956056821 2831075.71001785 -1001838.49076195
     272   0.17440396     -1001844            0   -1001838.5   -109.66424    2831075.7 
2.56 0.810293511209155 540.370066999991 0.174486300714441 2831075.71001785 -1001838.48691701
     273    0.1744863     -1001844            0   -1001838.5   -110.77662    2831075.7 
2.57 0.80965646233016 540.370066999992 0.174591263890993 2831075.71001785 -1001838.48186686
     274   0.17459126     -1001844            0   -1001838.5   -112.08759    2831075.7 
2.58 0.808923102249149 540.370066999993 0.174721023084233 2831075.71001785 -1001838.47544856
     275   0.17472102     -1001844            0   -1001838.5   -113.59575    2831075.7 
2.59 0.808094154703981 540.370066999993 0.174877441972645 2831075.71001785 -1001838.46751958
     276   0.17487744     -1001844            0   -1001838.5   -115.29953    2831075.7 
2.6 0.807170437765802 540.370066999992 0.175062568367533 2831075.71001785 -1001838.45792694
     277   0.17506257     -1001844            0   -1001838.5    -117.1972    2831075.7 
2.61 0.806152863031708 540.370066999991 0.175278930135207 2831075.71001785 -1001838.44651331
     278   0.17527893     -1001844            0   -1001838.4   -119.28688    2831075.7 
2.62 0.805042434725111 540.370066999992 0.175529274171691 2831075.71001785 -1001838.43314995
     279   0.17552927     -1001844            0   -1001838.4   -121.56654    2831075.7 
2.63 0.803840248704684 540.370066999993 0.17581593138725 2831075.71001785 -1001838.41770555
     280   0.17581593   -1001843.9            0   -1001838.4   -124.03404    2831075.7 
2.64 0.802547491382889 540.370066999993 0.176140367020838 2831075.71001785 -1001838.40007699
     281   0.17614037   -1001843.9            0   -1001838.4   -126.68707    2831075.7 
2.65 0.801165438555122 540.370066999992 0.176503312874709 2831075.71001785 -1001838.38016665
     282   0.17650331   -1001843.9            0   -1001838.4   -129.52316    2831075.7 
2.66 0.799695454140673 540.370066999991 0.176905336729971 2831075.71001785 -1001838.35788749
     283   0.17690534   -1001843.9            0   -1001838.4   -132.53964    2831075.7 
2.67 0.79813898883668 540.370066999992 0.177347317371601 2831075.71001785 -1001838.33316191
     284   0.17734732   -1001843.9            0   -1001838.3   -135.73356    2831075.7 
2.68 0.796497578686488 540.370066999993 0.177830429319892 2831075.71001785 -1001838.30592228
     285   0.17783043   -1001843.9            0   -1001838.3   -139.10176    2831075.7 
2.69 0.794772843563743 540.370066999993 0.178355754733441 2831075.71001785 -1001838.276114
     286   0.17835575   -1001843.9            0   -1001838.3   -142.64084    2831075.7 
2.7 0.792966485573781 540.370066999992 0.178923999438865 2831075.71001785 -1001838.24367215
     287     0.178924   -1001843.9            0   -1001838.2   -146.34719    2831075.7 
2.71 0.791080287373855 540.370066999991 0.179535632269119 2831075.71001785 -1001838.20853177
     288   0.17953563   -1001843.9            0   -1001838.2   -150.21709    2831075.7 
2.72 0.789116110413865 540.370066999992 0.180191276382873 2831075.71001785 -1001838.17063382
     289   0.18019128   -1001843.8            0   -1001838.2   -154.24663    2831075.7 
2.73 0.787075893099333 540.370066999993 0.180891871828329 2831075.71001785 -1001838.12994699
     290   0.18089187   -1001843.8            0   -1001838.1   -158.43179    2831075.7 
2.74 0.784961648878428 540.370066999993 0.18163832853347 2831075.71001785 -1001838.08644221
     291   0.18163833   -1001843.8            0   -1001838.1   -162.76845    2831075.7 
2.75 0.78277546425494 540.370066999992 0.182430903066629 2831075.71001785 -1001838.04010887
     292    0.1824309   -1001843.8            0     -1001838   -167.25237    2831075.7 
2.76 0.780519496729156 540.370066999991 0.183268838587571 2831075.71001785 -1001837.99096958
     293   0.18326884   -1001843.8            0     -1001838   -171.87925    2831075.7 
2.77 0.778195972668652 540.370066999991 0.184150599981122 2831075.71001785 -1001837.93906041
     294    0.1841506   -1001843.7            0   -1001837.9   -176.64466    2831075.7 
2.78 0.775807185111156 540.370066999992 0.185074508589722 2831075.71001785 -1001837.88442928
     295   0.18507451   -1001843.7            0   -1001837.9   -181.54403    2831075.7 
2.79 0.773355491501583 540.370066999993 0.186039241067058 2831075.71001785 -1001837.82713125
     296   0.18603924   -1001843.7            0   -1001837.8   -186.57259    2831075.7 
2.8 0.770843311365534 540.370066999992 0.187043834498752 2831075.71001785 -1001837.76723853
     297   0.18704383   -1001843.6            0   -1001837.8   -191.72536    2831075.7 
2.81 0.768273123921501 540.370066999992 0.188087337833259 2831075.71001785 -1001837.70480564
     298   0.18808734   -1001843.6            0   -1001837.7   -196.99722    2831075.7 
2.82 0.765647465634186 540.370066999991 0.189168561407847 2831075.71001785 -1001837.63989587
     299   0.18916856   -1001843.6            0   -1001837.6   -202.38288    2831075.7 
2.83 0.762968927711324 540.370066999993 0.190286199150176 2831075.71001785 -1001837.57257599
     300    0.1902862   -1001843.6            0   -1001837.6   -207.87691    2831075.7 
2.84 0.760240153546458 540.370066999993 0.191439133402799 2831075.71001785 -1001837.50290864
     301   0.19143913   -1001843.5            0   -1001837.5   -213.47382    2831075.7 
2.85 0.757463836110242 540.370066999993 0.192626486254409 2831075.71001785 -1001837.43096756
     302   0.19262649   -1001843.5            0   -1001837.4   -219.16798    2831075.7 
2.86 0.754642715292794 540.370066999992 0.193847216739756 2831075.71001785 -1001837.35685959
     303   0.19384722   -1001843.5            0   -1001837.4   -224.95375    2831075.7 
2.87 0.751779575199765 540.370066999991 0.195099539600254 2831075.71001785 -1001837.28070072
     304   0.19509954   -1001843.4            0   -1001837.3   -230.82545    2831075.7 
2.88 0.748877241404755 540.370066999992 0.1963806761774 2831075.71001785 -1001837.20262
     305   0.19638068   -1001843.4            0   -1001837.2   -236.77736    2831075.7 
2.89 0.745938578160816 540.370066999993 0.197687190217388 2831075.71001785 -1001837.12278808
     306   0.19768719   -1001843.3            0   -1001837.1   -242.80375    2831075.7 
2.9 0.742966485573781 540.370066999992 0.199015654784235 2831075.71001785 -1001837.04135509
     307   0.19901565   -1001843.3            0     -1001837   -248.89879    2831075.7 
2.91 0.73996389674021 540.370066999992 0.20036312902312 2831075.71001785 -1001836.95850095
     308   0.20036313   -1001843.3            0     -1001837   -255.05653    2831075.7 
2.92 0.736933774852772 540.370066999991 0.201727142152803 2831075.71001785 -1001836.87439441
     309   0.20172714   -1001843.2            0   -1001836.9   -261.27092    2831075.7 
2.93 0.733879110275941 540.370066999992 0.203105361341637 2831075.71001785 -1001836.78916698
     310   0.20310536   -1001843.2            0   -1001836.8   -267.53578    2831075.7 
2.94 0.73080291759486 540.370066999993 0.204495373897285 2831075.71001785 -1001836.70299667
     311   0.20449537   -1001843.1            0   -1001836.7   -273.84485    2831075.7 
2.95 0.727708232640309 540.370066999993 0.205894801990642 2831075.71001785 -1001836.61599672
     312    0.2058948   -1001843.1            0   -1001836.6   -280.19181    2831075.7 
2.96 0.724598109492718 540.370066999992 0.20730154055291 2831075.71001785 -1001836.52832289
     313   0.20730154     -1001843            0   -1001836.5   -286.57029    2831075.7 
2.97 0.721475617468138 540.370066999991 0.208713726966331 2831075.71001785 -1001836.44012697
     314   0.20871373     -1001843            0   -1001836.4   -292.97388    2831075.7 
2.98 0.718343838089219 540.370066999992 0.210129315785233 2831075.71001785 -1001836.35157007
     315   0.21012932     -1001843            0   -1001836.4   -299.39621    2831075.7 
2.99 0.7152058620441 540.370066999993 0.21154556831029 2831075.71001785 -1001836.26283372
     316   0.21154557   -1001842.9            0   -1001836.3   -305.83095    2831075.7 
3 0.712064786136287 540.370066999992 0.212958918339163 2831075.71001785 -1001836.17410355
     317   0.21295892   -1001842.9            0   -1001836.2   -312.27182    2831075.7 
3.01 0.708923710228474 540.370066999992 0.214365380940524 2831075.71001785 -1001836.08558529
     318   0.21436538   -1001842.8            0   -1001836.1   -318.71258    2831075.7 
3.02 0.705785734183356 540.370066999992 0.215761204382354 2831075.71001785 -1001835.99747667
     319    0.2157612   -1001842.8            0     -1001836   -325.14697    2831075.7 
3.03 0.702653954804435 540.370066999992 0.217143274575103 2831075.71001785 -1001835.90995776
     320   0.21714327   -1001842.7            0   -1001835.9   -331.56874    2831075.7 
3.04 0.699531462779857 540.370066999993 0.218509045305124 2831075.71001785 -1001835.82323315
     321   0.21850905   -1001842.7            0   -1001835.8   -337.97155    2831075.7 
3.05 0.696421339632264 540.370066999993 0.219856209606788 2831075.71001785 -1001835.73745418
     322   0.21985621   -1001842.6            0   -1001835.7   -344.34908    2831075.7 
3.06 0.693326654677715 540.370066999993 0.221182513033384 2831075.71001785 -1001835.65276115
     323   0.22118251   -1001842.6            0   -1001835.7   -350.69496    2831075.7 
3.07 0.690250461996632 540.370066999991 0.222485870522941 2831075.71001785 -1001835.56929775
     324   0.22248587   -1001842.6            0   -1001835.6   -357.00283    2831075.7 
3.08 0.687195797419802 540.370066999991 0.223764556344742 2831075.71001785 -1001835.48718707
     325   0.22376456   -1001842.5            0   -1001835.5   -363.26636    2831075.7 
3.09 0.684165675532364 540.370066999992 0.225017123491056 2831075.71001785 -1001835.4065783
     326   0.22501712   -1001842.5            0   -1001835.4   -369.47926    2831075.7 
3.1 0.681163086698793 540.370066999992 0.226241991569182 2831075.71001785 -1001835.32758925
     327   0.22624199   -1001842.4            0   -1001835.3   -375.63532    2831075.7 
3.11 0.678190994111759 540.370066999992 0.227437022819836 2831075.71001785 -1001835.25037168
     328   0.22743702   -1001842.4            0   -1001835.3   -381.72847    2831075.7 
3.12 0.67525233086782 540.370066999992 0.228599487488962 2831075.71001785 -1001835.17506506
     329   0.22859949   -1001842.4            0   -1001835.2   -387.75275    2831075.7 
3.13 0.67234999707281 540.370066999991 0.229726501243395 2831075.71001785 -1001835.10182454
     330    0.2297265   -1001842.3            0   -1001835.1   -393.70231    2831075.7 
3.14 0.66948685697978 540.370066999993 0.230815608441542 2831075.71001785 -1001835.030776
     331   0.23081561   -1001842.3            0     -1001835   -399.57141    2831075.7 
3.15 0.666665736162333 540.370066999993 0.23186507767323 2831075.71001785 -1001834.96205287
     332   0.23186508   -1001842.3            0     -1001835   -405.35429    2831075.7 
3.16 0.663889418726116 540.370066999992 0.232873761402599 2831075.71001785 -1001834.89574079
     333   0.23287376   -1001842.2            0   -1001834.9   -411.04531    2831075.7 
3.17 0.661160644561251 540.370066999992 0.233840768204599 2831075.71001785 -1001834.83193198
     334   0.23384077   -1001842.2            0   -1001834.8   -416.63884    2831075.7 
3.18 0.658482106638388 540.370066999991 0.234765310613397 2831075.71001785 -1001834.77068574
     335   0.23476531   -1001842.2            0   -1001834.8    -422.1293    2831075.7 
3.19 0.655856448351074 540.370066999992 0.23564683017465 2831075.71001785 -1001834.71204715
     336   0.23564683   -1001842.1            0   -1001834.7    -427.5112    2831075.7 
3.2 0.653286260907041 540.370066999992 0.23648516036306 2831075.71001785 -1001834.65604827
     337   0.23648516   -1001842.1            0   -1001834.7   -432.77912    2831075.7 
3.21 0.65077408077099 540.370066999992 0.237280428764004 2831075.71001785 -1001834.60273604
     338   0.23728043   -1001842.1            0   -1001834.6   -437.92777    2831075.7 
3.22 0.648322387161418 540.370066999992 0.238032685678489 2831075.71001785 -1001834.5521344
     339   0.23803269     -1001842            0   -1001834.6     -442.952    2831075.7 
3.23 0.645933599603923 540.370066999992 0.238741570855986 2831075.71001785 -1001834.50426885
     340   0.23874157     -1001842            0   -1001834.5   -447.84682    2831075.7 
3.24 0.643610075543419 540.370066999993 0.239406346700111 2831075.71001785 -1001834.45917801
     341   0.23940635     -1001842            0   -1001834.5   -452.60748    2831075.7 
3.25 0.641354108017634 540.370066999992 0.240026314385615 2831075.71001785 -1001834.41687584
     342   0.24002631     -1001842            0   -1001834.4   -457.22937    2831075.7 
3.26 0.639167923394147 540.370066999993 0.240601288592917 2831075.71001785 -1001834.37737361
     343   0.24060129   -1001841.9            0   -1001834.4   -461.70801    2831075.7 
3.27 0.637053679173241 540.370066999992 0.241131766355858 2831075.71001785 -1001834.34065654
     344   0.24113177   -1001841.9            0   -1001834.3   -466.03907    2831075.7 
3.28 0.635013461858709 540.370066999992 0.241618720260098 2831075.71001785 -1001834.30669925
     345   0.24161872   -1001841.9            0   -1001834.3   -470.21832    2831075.7 
3.29 0.633049284898719 540.370066999992 0.242063279371297 2831075.71001785 -1001834.2754565
     346   0.24206328   -1001841.9            0   -1001834.3   -474.24164    2831075.7 
3.3 0.631163086698793 540.370066999992 0.242466614275586 2831075.71001785 -1001834.24686548
     347   0.24246661   -1001841.9            0   -1001834.2   -478.10504    2831075.7 
3.31 0.629356728708832 540.370066999992 0.242830078904763 2831075.71001785 -1001834.2208505
     348   0.24283008   -1001841.9            0   -1001834.2   -481.80463    2831075.7 
3.32 0.627631993586086 540.370066999992 0.24315536649302 2831075.71001785 -1001834.19731009
     349   0.24315537   -1001841.8            0   -1001834.2    -485.3367    2831075.7 
3.33 0.625990583435894 540.370066999992 0.243444424485548 2831075.71001785 -1001834.17617693
     350   0.24344442   -1001841.8            0   -1001834.2   -488.69765    2831075.7 
3.34 0.624434118131902 540.370066999993 0.243699144915475 2831075.71001785 -1001834.15735327
     351   0.24369914   -1001841.8            0   -1001834.2   -491.88412    2831075.7 
3.35 0.622964133717451 540.370066999993 0.24392111161982 2831075.71001785 -1001834.14074433
     352   0.24392111   -1001841.8            0   -1001834.1   -494.89297    2831075.7 
3.36 0.621582080889686 540.370066999992 0.244111665853632 2831075.71001785 -1001834.12624436
     353   0.24411167   -1001841.8            0   -1001834.1   -497.72125    2831075.7 
3.37 0.62028932356789 540.370066999992 0.244272261345468 2831075.71001785 -1001834.11375265
     354   0.24427226   -1001841.8            0   -1001834.1   -500.36628    2831075.7 
3.38 0.619087137547462 540.370066999992 0.244404810425163 2831075.71001785 -1001834.10314484
     355   0.24440481   -1001841.8            0   -1001834.1   -502.82554    2831075.7 
3.39 0.617976709240865 540.370066999992 0.244511734671965 2831075.71001785 -1001834.09429587
     356   0.24451173   -1001841.8            0   -1001834.1   -505.09666    2831075.7 
3.4 0.616959134506773 540.370066999993 0.244595709854267 2831075.71001785 -1001834.08706637
     357   0.24459571   -1001841.8            0   -1001834.1   -507.17748    2831075.7 
3.41 0.616035417568594 540.370066999992 0.244659367966002 2831075.71001785 -1001834.08129866
     358   0.24465937   -1001841.8            0   -1001834.1   -509.06595    2831075.7 
3.42 0.615206470023425 540.370066999992 0.244705223801652 2831075.71001785 -1001834.07684653
     359   0.24470522   -1001841.8            0   -1001834.1   -510.76021    2831075.7 
3.43 0.614473109942413 540.370066999992 0.244735839077559 2831075.71001785 -1001834.07352231
     360   0.24473584   -1001841.8            0   -1001834.1   -512.25855    2831075.7 
3.44 0.61383606106342 540.370066999992 0.244753991162738 2831075.71001785 -1001834.07118911
     361   0.24475399   -1001841.8            0   -1001834.1   -513.55941    2831075.7 
3.45 0.613295952076774 540.370066999993 0.244762624882878 2831075.71001785 -1001834.06967018
     362   0.24476262   -1001841.8            0   -1001834.1   -514.66146    2831075.7 
3.46 0.612853316004841 540.370066999993 0.244764614088846 2831075.71001785 -1001834.06879443
     363   0.24476461   -1001841.8            0   -1001834.1   -515.56355    2831075.7 
3.47 0.61250858967598 540.370066999992 0.244762574957501 2831075.71001785 -1001834.06839735
     364   0.24476257   -1001841.8            0   -1001834.1    -516.2648    2831075.7 
3.48 0.612262113293462 540.370066999992 0.244758932743326 2831075.71001785 -1001834.06830124
     365   0.24475893   -1001841.8            0   -1001834.1   -516.76456    2831075.7 
3.49 0.612114130099715 540.370066999991 0.244756194542214 2831075.71001785 -1001834.06834201
     366   0.24475619   -1001841.8            0   -1001834.1    -517.0624    2831075.7 
3.5 0.612064786136288 540.370066999992 0.24475717181316 2831075.71001785 -1001834.06835633
     367   0.24475717   -1001841.8            0   -1001834.1   -517.15811    2831075.7 
3.51 0.612114130099715 540.370066999992 0.24476493723364 2831075.71001785 -1001834.06815251
     368   0.24476494   -1001841.8            0   -1001834.1    -517.0517    2831075.7 
3.52 0.612262113293462 540.370066999992 0.244782548143243 2831075.71001785 -1001834.06755816
     369   0.24478255   -1001841.8            0   -1001834.1   -516.74329    2831075.7 
3.53 0.61250858967598 540.370066999992 0.244812781477096 2831075.71001785 -1001834.06639661
     370   0.24481278   -1001841.8            0   -1001834.1   -516.23326    2831075.7 
3.54 0.612853316004841 540.370066999992 0.244858102607526 2831075.71001785 -1001834.06450295
     371    0.2448581   -1001841.8            0   -1001834.1    -515.5221    2831075.7 
3.55 0.613295952076774 540.370066999993 0.244920856350441 2831075.71001785 -1001834.06171492
     372   0.24492086   -1001841.8            0   -1001834.1   -514.61049    2831075.7 
3.56 0.61383606106342 540.370066999992 0.24500346119947 2831075.71001785 -1001834.05786634
     373   0.24500346   -1001841.8            0   -1001834.1   -513.49929    2831075.7 
3.57 0.614473109942413 540.370066999993 0.245108413079463 2831075.71001785 -1001834.05280674
     374   0.24510841   -1001841.8            0   -1001834.1   -512.18953    2831075.7 
3.58 0.615206470023425 540.370066999992 0.245238119291718 2831075.71001785 -1001834.04637646
     375   0.24523812   -1001841.8            0     -1001834   -510.68248    2831075.7 
3.59 0.616035417568594 540.370066999992 0.245394761128706 2831075.71001785 -1001834.03843944
     376   0.24539476   -1001841.8            0     -1001834   -508.97962    2831075.7 
3.6 0.616959134506773 540.370066999992 0.24558034382079 2831075.71001785 -1001834.02884015
     377   0.24558034   -1001841.7            0     -1001834   -507.08265    2831075.7 
3.61 0.617976709240865 540.370066999992 0.245796884286756 2831075.71001785 -1001834.0174412
     378   0.24579688   -1001841.7            0     -1001834   -504.99353    2831075.7 
3.62 0.619087137547462 540.370066999992 0.24604653130183 2831075.71001785 -1001834.00411898
     379   0.24604653   -1001841.7            0     -1001834   -502.71436    2831075.7 
3.63 0.62028932356789 540.370066999992 0.246331462079588 2831075.71001785 -1001833.98872626
     380   0.24633146   -1001841.7            0     -1001834   -500.24748    2831075.7 
3.64 0.621582080889686 540.370066999992 0.246653608019639 2831075.71001785 -1001833.97116242
     381   0.24665361   -1001841.7            0     -1001834   -497.59538    2831075.7 
3.65 0.622964133717451 540.370066999993 0.24701443068423 2831075.71001785 -1001833.95131992
     382   0.24701443   -1001841.7            0     -1001834    -494.7607    2831075.7 
3.66 0.624434118131902 540.370066999993 0.247414929796269 2831075.71001785 -1001833.92910864
     383   0.24741493   -1001841.7            0   -1001833.9   -491.74627    2831075.7 
3.67 0.625990583435894 540.370066999993 0.247855859075366 2831075.71001785 -1001833.9044491
     384   0.24785586   -1001841.7            0   -1001833.9   -488.55503    2831075.7 
3.68 0.627631993586086 540.370066999992 0.248337951360211 2831075.71001785 -1001833.87727033
     385   0.24833795   -1001841.7            0   -1001833.9   -485.19011    2831075.7 
3.69 0.629356728708832 540.370066999992 0.24886197655505 2831075.71001785 -1001833.84751701
     386   0.24886198   -1001841.7            0   -1001833.8   -481.65479    2831075.7 
3.7 0.631163086698793 540.370066999992 0.249428641121633 2831075.71001785 -1001833.81514583
     387   0.24942864   -1001841.7            0   -1001833.8   -477.95251    2831075.7 
3.71 0.633049284898719 540.370066999992 0.250038486756172 2831075.71001785 -1001833.78009907
     388   0.25003849   -1001841.6            0   -1001833.8   -474.08692    2831075.7 
3.72 0.635013461858709 540.370066999992 0.250691915314894 2831075.71001785 -1001833.74233327
     389   0.25069192   -1001841.6            0   -1001833.7   -470.06185    2831075.7 
3.73 0.637053679173241 540.370066999992 0.251389303582743 2831075.71001785 -1001833.70181287
     390    0.2513893   -1001841.6            0   -1001833.7    -465.8813    2831075.7 
3.74 0.639167923394147 540.370066999993 0.252131049225766 2831075.71001785 -1001833.65850685
     391   0.25213105   -1001841.6            0   -1001833.7   -461.54948    2831075.7 
3.75 0.641354108017634 540.370066999993 0.252917437199162 2831075.71001785 -1001833.61243049
     392   0.25291744   -1001841.6            0   -1001833.6   -457.07069    2831075.7 
3.76 0.643610075543419 540.370066999993 0.253748386807288 2831075.71001785 -1001833.56356261
     393   0.25374839   -1001841.5            0   -1001833.6    -452.4494    2831075.7 
3.77 0.645933599603922 540.370066999992 0.254623269340685 2831075.71001785 -1001833.51193402
     394   0.25462327   -1001841.5            0   -1001833.5   -447.69022    2831075.7 
3.78 0.648322387161418 540.370066999992 0.255540947545414 2831075.71001785 -1001833.45758795
     395   0.25554095   -1001841.5            0   -1001833.5   -442.79785    2831075.7 
3.79 0.65077408077099 540.370066999992 0.25650000856752 2831075.71001785 -1001833.40056935
     396   0.25650001   -1001841.5            0   -1001833.4   -437.77711    2831075.7 
3.8 0.653286260907041 540.370066999992 0.257499012630091 2831075.71001785 -1001833.34095714
     397   0.25749901   -1001841.4            0   -1001833.3   -432.63293    2831075.7 
3.81 0.655856448351074 540.370066999993 0.258536596927135 2831075.71001785 -1001833.27880571
     398    0.2585366   -1001841.4            0   -1001833.3   -427.37032    2831075.7 
3.82 0.658482106638388 540.370066999992 0.259611426891739 2831075.71001785 -1001833.21420351
     399   0.25961143   -1001841.4            0   -1001833.2   -421.99447    2831075.7 
3.83 0.661160644561251 540.370066999992 0.260722118874135 2831075.71001785 -1001833.14721943
     400   0.26072212   -1001841.3            0   -1001833.1   -416.51063    2831075.7 
3.84 0.663889418726116 540.370066999992 0.261867241281454 2831075.71001785 -1001833.07793227
     401   0.26186724   -1001841.3            0   -1001833.1   -410.92422    2831075.7 
3.85 0.666665736162333 540.370066999993 0.263045372473686 2831075.71001785 -1001833.00643375
     402   0.26304537   -1001841.3            0     -1001833   -405.24078    2831075.7 
3.86 0.66948685697978 540.370066999993 0.26425509953575 2831075.71001785 -1001832.93282044
     403    0.2642551   -1001841.2            0   -1001832.9   -399.46595    2831075.7 
3.87 0.67234999707281 540.370066999993 0.265494877843289 2831075.71001785 -1001832.85718814
     404   0.26549488   -1001841.2            0   -1001832.9   -393.60547    2831075.7 
3.88 0.67525233086782 540.370066999992 0.266762808454193 2831075.71001785 -1001832.77966911
     405   0.26676281   -1001841.2            0   -1001832.8   -387.66515    2831075.7 
3.89 0.678190994111759 540.370066999992 0.268056494447153 2831075.71001785 -1001832.70039508
     406   0.26805649   -1001841.1            0   -1001832.7   -381.65089    2831075.7 
3.9 0.681163086698793 540.370066999992 0.26937309990028 2831075.71001785 -1001832.61951398
     407    0.2693731   -1001841.1            0   -1001832.6   -375.56864    2831075.7 
3.91 0.684165675532364 540.370066999992 0.270709585986683 2831075.71001785 -1001832.53719373
     408   0.27070959     -1001841            0   -1001832.5   -369.42437    2831075.7 
3.92 0.687195797419802 540.370066999992 0.272062967978261 2831075.71001785 -1001832.45359839
     409   0.27206297     -1001841            0   -1001832.5   -363.22414    2831075.7 
3.93 0.690250461996633 540.370066999992 0.273430444961936 2831075.71001785 -1001832.36888517
     410   0.27343044     -1001841            0   -1001832.4   -356.97401    2831075.7 
3.94 0.693326654677715 540.370066999992 0.274809384273608 2831075.71001785 -1001832.28322605
     411   0.27480938   -1001840.9            0   -1001832.3   -350.68009    2831075.7 
3.95 0.696421339632264 540.370066999993 0.276197258425591 2831075.71001785 -1001832.19678514
     412   0.27619726   -1001840.9            0   -1001832.2   -344.34857    2831075.7 
3.96 0.699531462779857 540.370066999993 0.277591624541469 2831075.71001785 -1001832.10970542
     413   0.27759162   -1001840.8            0   -1001832.1   -337.98567    2831075.7 
3.97 0.702653954804435 540.370066999993 0.278990143605958 2831075.71001785 -1001832.02214482
     414   0.27899014   -1001840.8            0     -1001832   -331.59768    2831075.7 
3.98 0.705785734183356 540.370066999992 0.280390552638532 2831075.71001785 -1001831.93426457
     415   0.28039055   -1001840.7            0   -1001831.9   -325.19096    2831075.7 
3.99 0.708923710228474 540.370066999992 0.281790531099297 2831075.71001785 -1001831.84623208
     416   0.28179053   -1001840.7            0   -1001831.8   -318.77182    2831075.7 
4 0.712064786136287 540.370066999992 0.283187513788864 2831075.71001785 -1001831.75820133
     417   0.28318751   -1001840.7            0   -1001831.8   -312.34664    2831075.7 
4.01 0.7152058620441 540.370066999993 0.28457857801377 2831075.71001785 -1001831.67036477
     418   0.28457858   -1001840.6            0   -1001831.7   -305.92179    2831075.7 
4.02 0.718343838089219 540.370066999992 0.285960510512686 2831075.71001785 -1001831.58290358
     419   0.28596051   -1001840.6            0   -1001831.6   -299.50359    2831075.7 
4.03 0.721475617468138 540.370066999992 0.287330030015447 2831075.71001785 -1001831.49599047
     420   0.28733003   -1001840.5            0   -1001831.5   -293.09839    2831075.7 
4.04 0.724598109492717 540.370066999992 0.288684030417228 2831075.71001785 -1001831.40983491
     421   0.28868403   -1001840.5            0   -1001831.4   -286.71247    2831075.7 
4.05 0.727708232640309 540.370066999993 0.290019712626677 2831075.71001785 -1001831.32459223
     422   0.29001971   -1001840.4            0   -1001831.3   -280.35207    2831075.7 
4.06 0.730802917594859 540.370066999993 0.291334579999344 2831075.71001785 -1001831.24043346
     423   0.29133458   -1001840.4            0   -1001831.2   -274.02345    2831075.7 
4.07 0.733879110275941 540.370066999993 0.292626376906854 2831075.71001785 -1001831.15752308
     424   0.29262638   -1001840.4            0   -1001831.2   -267.73278    2831075.7 
4.08 0.736933774852772 540.370066999992 0.293893053511085 2831075.71001785 -1001831.0759893
     425   0.29389305   -1001840.3            0   -1001831.1   -261.48628    2831075.7 
4.09 0.73996389674021 540.370066999991 0.295132760733825 2831075.71001785 -1001830.9959654
     426   0.29513276   -1001840.3            0     -1001831   -255.29011    2831075.7 
4.1 0.742966485573781 540.370066999992 0.296343812739332 2831075.71001785 -1001830.91758326
     427   0.29634381   -1001840.2            0   -1001830.9   -249.15038    2831075.7 
4.11 0.745938578160816 540.370066999993 0.297524570167131 2831075.71001785 -1001830.84097032
     428   0.29752457   -1001840.2            0   -1001830.8    -243.0732    2831075.7 
[...]
    1914    0.4967779   -1001829.7            0   -1001814.1    55.322367    2831075.7 
18.98 0.72105330058117 540.379576406125 0.469342084975737 2831075.71001785 -1001814.09629012
    1915   0.46934208   -1001828.9            0   -1001814.1    60.341161    2831075.7 
18.99 0.721053516814603 540.379848175612 0.441911994309424 2831075.71001785 -1001814.0961485
    1916   0.44191199     -1001828            0   -1001814.1    64.900254    2831075.7 
19 0.721053152612903 540.380128179766 0.414557151406143 2831075.71001785 -1001814.09599839
    1917   0.41455715   -1001827.1            0   -1001814.1    69.024218    2831075.7 
19.01 0.721052300699737 540.380399171114 0.38735484223631 2831075.71001785 -1001814.09581782
    1918   0.38735484   -1001826.3            0   -1001814.1    72.750478    2831075.7 
19.02 0.721051180046609 540.380642383603 0.360400901977381 2831075.71001785 -1001814.09557116
    1919    0.3604009   -1001825.4            0   -1001814.1    76.126798    2831075.7 
19.03 0.721050081311979 540.380839532837 0.333815985799986 2831075.71001785 -1001814.09529766
    1920   0.33381599   -1001824.6            0   -1001814.1    79.207603    2831075.7 
19.04 0.721049293312299 540.380974976296 0.307745408208149 2831075.71001785 -1001814.09496611
    1921   0.30774541   -1001823.8            0   -1001814.1    82.049764    2831075.7 
19.05 0.72104902996372 540.381037694876 0.282352386235984 2831075.71001785 -1001814.09462806
    1922   0.28235239     -1001823            0   -1001814.1    84.707537    2831075.7 
19.06 0.721049377041377 540.381022773794 0.25780636759642 2831075.71001785 -1001814.09431464
    1923   0.25780637   -1001822.2            0   -1001814.1    87.229009    2831075.7 
19.07 0.721050272831871 540.380932133919 0.234269658812694 2831075.71001785 -1001814.0940236
    1924   0.23426966   -1001821.5            0   -1001814.1    89.651571    2831075.7 
19.08 0.721051527698669 540.380774382836 0.211886169812761 2831075.71001785 -1001814.09379074
    1925   0.21188617   -1001820.8            0   -1001814.1    91.999199    2831075.7 
19.09 0.721052877158335 540.380563797818 0.19077544622321 2831075.71001785 -1001814.09360939
    1926   0.19077545   -1001820.1            0   -1001814.1    94.281117    2831075.7 
19.1 0.721054054073031 540.380318594703 0.171033614199708 2831075.71001785 -1001814.09344699
    1927   0.17103361   -1001819.5            0   -1001814.1    96.490836    2831075.7 
19.11 0.721054860423909 540.380058752576 0.152740793116063 2831075.71001785 -1001814.09330175
    1928   0.15274079   -1001818.9            0   -1001814.1    98.607505    2831075.7 
19.12 0.721055219237002 540.379803733219 0.135972522049577 2831075.71001785 -1001814.09314225
    1929   0.13597252   -1001818.4            0   -1001814.1    100.59845    2831075.7 
19.13 0.721055192579353 540.379570442698 0.120811436819917 2831075.71001785 -1001814.09296022
    1930   0.12081144   -1001817.9            0   -1001814.1    102.42166    2831075.7 
19.14 0.721054960712049 540.3793717309 0.107355221688003 2831075.71001785 -1001814.09272764
    1931   0.10735522   -1001817.5            0   -1001814.1    104.02953    2831075.7 
19.15 0.721054768027199 540.379215621121 0.0957179275078586 2831075.71001785 -1001814.09248636
    1932  0.095717928   -1001817.1            0   -1001814.1    105.37285    2831075.7 
19.16 0.721054850474407 540.37910532761 0.0860237537642422 2831075.71001785 -1001814.09224442
    1933  0.086023754   -1001816.8            0   -1001814.1    106.40475    2831075.7 
19.17 0.721055364341002 540.379039977831 0.0783946915773016 2831075.71001785 -1001814.09202738
    1934  0.078394692   -1001816.6            0   -1001814.1    107.08418    2831075.7 
19.18 0.721056336070902 540.379015835912 0.0729354303335399 2831075.71001785 -1001814.09187891
    1935   0.07293543   -1001816.4            0   -1001814.1    107.37907    2831075.7 
19.19 0.721057647299357 540.379027744649 0.0697200141796467 2831075.71001785 -1001814.09180887
    1936  0.069720014   -1001816.3            0   -1001814.1    107.26861    2831075.7 
19.2 0.721059059890437 540.379070480621 0.068784352896786 2831075.71001785 -1001814.0918153
    1937  0.068784353   -1001816.3            0   -1001814.1     106.7447    2831075.7 
19.21 0.721060274991572 540.379139752899 0.0701268392213632 2831075.71001785 -1001814.09187978
    1938  0.070126839   -1001816.3            0   -1001814.1    105.81279    2831075.7 
19.22 0.721061010853555 540.379232662282 0.073716696395213 2831075.71001785 -1001814.09198061
    1939  0.073716696   -1001816.4            0   -1001814.1     104.4919    2831075.7 
19.23 0.72106107890578 540.379347558566 0.0795072425291226 2831075.71001785 -1001814.09207644
    1940  0.079507243   -1001816.6            0   -1001814.1    102.81324    2831075.7 
19.24 0.72106043776521 540.379483363708 0.0874497710204331 2831075.71001785 -1001814.09215836
    1941  0.087449771   -1001816.8            0   -1001814.1     100.8181    2831075.7 
19.25 0.721059210481288 540.379638544069 0.0975036204629546 2831075.71001785 -1001814.09221128
    1942   0.09750362   -1001817.2            0   -1001814.1    98.554651    2831075.7 
19.26 0.721057659910465 540.379809993426 0.109639307724795 2831075.71001785 -1001814.09225885
    1943   0.10963931   -1001817.5            0   -1001814.1    96.074419    2831075.7 
19.27 0.721056128136386 540.379992114045 0.123833875444397 2831075.71001785 -1001814.09230611
    1944   0.12383388     -1001818            0   -1001814.1    93.427554    2831075.7 
19.28 0.721054955371189 540.380176351697 0.140060078782962 2831075.71001785 -1001814.09239239
    1945   0.14006008   -1001818.5            0   -1001814.1    90.658787    2831075.7 
19.29 0.721054399242105 540.38035135653 0.158272942391586 2831075.71001785 -1001814.09253265
    1946   0.15827294   -1001819.1            0   -1001814.1    87.803377    2831075.7 
19.3 0.72105457530781 540.380503821533 0.178398082711556 2831075.71001785 -1001814.09274882
    1947   0.17839808   -1001819.7            0   -1001814.1    84.884669    2831075.7 
19.31 0.721055434057021 540.380619915418 0.200325815062872 2831075.71001785 -1001814.09303671
    1948   0.20032582   -1001820.4            0   -1001814.1    81.911784    2831075.7 
19.32 0.721056779994944 540.380687102978 0.223913389433142 2831075.71001785 -1001814.09336482
    1949   0.22391339   -1001821.1            0   -1001814.1    78.878527    2831075.7 
19.33 0.721058327291583 540.380696056413 0.248995128738901 2831075.71001785 -1001814.09370961
    1950   0.24899513   -1001821.9            0   -1001814.1    75.764081    2831075.7 
19.34 0.721059776823879 540.380642324142 0.275397616379321 2831075.71001785 -1001814.09403564
    1951   0.27539762   -1001822.8            0   -1001814.1    72.535395    2831075.7 
19.35 0.721060893872547 540.380527446463 0.302955357970007 2831075.71001785 -1001814.09432387
    1952   0.30295536   -1001823.6            0   -1001814.1    69.149412    2831075.7 
19.36 0.721061565728105 540.380359288758 0.331522184527811 2831075.71001785 -1001814.09456494
    1953   0.33152218   -1001824.5            0   -1001814.1    65.556593    2831075.7 
19.37 0.721061824022141 540.380151488576 0.360975084571777 2831075.71001785 -1001814.09476383
    1954   0.36097508   -1001825.4            0   -1001814.1    61.704638    2831075.7 
19.38 0.721061826238944 540.379922060911 0.391209679797873 2831075.71001785 -1001814.09495597
    1955   0.39120968   -1001826.4            0   -1001814.1    57.542515    2831075.7 
19.39 0.721061801989371 540.3796913503 0.422129371087403 2831075.71001785 -1001814.0951513
    1956   0.42212937   -1001827.4            0   -1001814.1    53.024899    2831075.7 
19.4 0.721061979246387 540.379479631482 0.453632154125059 2831075.71001785 -1001814.0953834
    1957   0.45363215   -1001828.4            0   -1001814.1    48.114805    2831075.7 
19.41 0.721062511247626 540.37930472204 0.485599643664343 2831075.71001785 -1001814.09565798
    1958   0.48559964   -1001829.4            0   -1001814.1    42.786326    2831075.7 
19.42 0.721063424659618 540.379179968722 0.517891896227987 2831075.71001785 -1001814.09597232
    1959    0.5178919   -1001830.4            0   -1001814.1    37.026996    2831075.7 
19.43 0.721064603874718 540.379112904382 0.550349588709581 2831075.71001785 -1001814.09630942
    1960   0.55034959   -1001831.4            0   -1001814.1    30.838418    2831075.7 
19.44 0.721065816494815 540.379104756672 0.582802821499288 2831075.71001785 -1001814.09664709
    1961   0.58280282   -1001832.4            0   -1001814.1    24.235487    2831075.7 
19.45 0.72106677378003 540.379150844505 0.615083827064706 2831075.71001785 -1001814.09695261
    1962   0.61508383   -1001833.4            0   -1001814.1    17.245808    2831075.7 
19.46 0.721067210147947 540.379241750348 0.647039665652626 2831075.71001785 -1001814.09720771
    1963   0.64703967   -1001834.4            0   -1001814.1    9.9080052    2831075.7 
19.47 0.721066960331641 540.379365032492 0.678541044479589 2831075.71001785 -1001814.09740694
    1964   0.67854104   -1001835.4            0   -1001814.1     2.268696    2831075.7 
19.48 0.721066013054062 540.379507162741 0.709484639451595 2831075.71001785 -1001814.09756524
    1965   0.70948464   -1001836.4            0   -1001814.1   -5.6212817    2831075.7 
19.49 0.721064526031636 540.379655355361 0.739788279946686 2831075.71001785 -1001814.09770069
    1966   0.73978828   -1001837.4            0   -1001814.1    -13.71103    2831075.7 
19.5 0.721062797228285 540.379798993592 0.769380548543113 2831075.71001785 -1001814.09784382
    1967   0.76938055   -1001838.3            0   -1001814.1   -21.953926    2831075.7 
19.51 0.721061198865693 540.379930452066 0.798188162312986 2831075.71001785 -1001814.09800887
    1968   0.79818816   -1001839.2            0   -1001814.1   -30.311396    2831075.7 
19.52 0.72106009066626 540.38004523872 0.826125279351339 2831075.71001785 -1001814.09821087
    1969   0.82612528   -1001840.1            0   -1001814.1   -38.756136    2831075.7 
19.53 0.721059734483756 540.38014151407 0.853088238051137 2831075.71001785 -1001814.09845307
    1970   0.85308824   -1001840.9            0   -1001814.1   -47.274399    2831075.7 
19.54 0.721060232317115 540.380219164146 0.878957438908705 2831075.71001785 -1001814.09870525
    1971   0.87895744   -1001841.7            0   -1001814.1    -55.86637    2831075.7 
19.55 0.721061503713369 540.380278682787 0.903605767144689 2831075.71001785 -1001814.09894725
    1972   0.90360577   -1001842.5            0   -1001814.1   -64.545906    2831075.7 
19.56 0.72106330831581 540.380320145886 0.926910847623071 2831075.71001785 -1001814.09915935
    1973   0.92691085   -1001843.2            0   -1001814.1    -73.33889    2831075.7 
19.57 0.721065307519693 540.380342529507 0.948767152825585 2831075.71001785 -1001814.09931767
    1974   0.94876715   -1001843.9            0   -1001814.1   -82.280617    2831075.7 
19.58 0.721067148998042 540.380343541302 0.969094009192666 2831075.71001785 -1001814.09942543
    1975   0.96909401   -1001844.6            0   -1001814.1   -91.412473    2831075.7 
19.59 0.721068551972726 540.380320018356 0.987836938837278 2831075.71001785 -1001814.09948791
    1976   0.98783694   -1001845.2            0   -1001814.1    -100.7785    2831075.7 
19.6 0.721069371099458 540.380268815927 1.00496203390751 2831075.71001785 -1001814.09953475
    1977     1.004962   -1001845.7            0   -1001814.1   -110.42156    2831075.7 
19.61 0.721069622707678 540.380187997199 1.02044533846938 2831075.71001785 -1001814.09957863
    1978    1.0204453   -1001846.2            0   -1001814.1   -120.37992    2831075.7 
19.62 0.721069467313238 540.380078056662 1.03426079672419 2831075.71001785 -1001814.09964491
    1979    1.0342608   -1001846.6            0   -1001814.1    -130.6841    2831075.7 
19.63 0.721069154076376 540.379942885863 1.0463707955229 2831075.71001785 -1001814.09975167
    1980    1.0463708     -1001847            0   -1001814.1   -141.35421    2831075.7 
19.64 0.721068943057088 540.379790224935 1.05672244680981 2831075.71001785 -1001814.0998825
    1981    1.0567224   -1001847.3            0   -1001814.1   -152.39787    2831075.7 
19.65 0.721069026989653 540.379631432247 1.06525073118445 2831075.71001785 -1001814.10002298
    1982    1.0652507   -1001847.6            0   -1001814.1   -163.80905    2831075.7 
19.66 0.721069474276434 540.379480530895 1.07188721991455 2831075.71001785 -1001814.10014836
    1983    1.0718872   -1001847.8            0   -1001814.1   -175.56778    2831075.7 
19.67 0.721070208990277 540.379352630979 1.07657123881707 2831075.71001785 -1001814.10023674
    1984    1.0765712   -1001847.9            0   -1001814.1   -187.64103    2831075.7 
19.68 0.721071033465997 540.379261953514 1.0792596537051 2831075.71001785 -1001814.10027358
    1985    1.0792597     -1001848            0   -1001814.1   -199.98457    2831075.7 
19.69 0.721071687311356 540.379219771323 1.07993206678894 2831075.71001785 -1001814.10026763
    1986    1.0799321     -1001848            0   -1001814.1   -212.54596    2831075.7 
19.7 0.721071926557745 540.379232614747 1.07858988892061 2831075.71001785 -1001814.10023328
    1987    1.0785899     -1001848            0   -1001814.1   -225.26826    2831075.7 
19.71 0.721071600948499 540.379301060991 1.0752499371165 2831075.71001785 -1001814.10017786
    1988    1.0752499   -1001847.9            0   -1001814.1    -238.0942    2831075.7 
19.72 0.721070707600938 540.37941933603 1.06993506704344 2831075.71001785 -1001814.10014241
    1989    1.0699351   -1001847.7            0   -1001814.1   -250.97061    2831075.7 
19.73 0.721069405447494 540.379575827096 1.06266519430073 2831075.71001785 -1001814.10012101
    1990    1.0626652   -1001847.5            0   -1001814.1    -263.8522    2831075.7 
19.74 0.721067985333513 540.379754451807 1.05345171096739 2831075.71001785 -1001814.10011568
    1991    1.0534517   -1001847.2            0   -1001814.1   -276.70465    2831075.7 
19.75 0.721066802628564 540.379936686222 1.04229705440793 2831075.71001785 -1001814.10013025
    1992    1.0422971   -1001846.9            0   -1001814.1   -289.50655    2831075.7 
19.76 0.721066189476046 540.380103943267 1.02919946688834 2831075.71001785 -1001814.10013003
    1993    1.0291995   -1001846.5            0   -1001814.1   -302.25018    2831075.7 
19.77 0.721066369582163 540.380239934677 1.01416127243668 2831075.71001785 -1001814.10009462
    1994    1.0141613     -1001846            0   -1001814.1   -314.94094    2831075.7 
19.78 0.721067398139428 540.380332654257 0.997197873693114 2831075.71001785 -1001814.1000288
    1995   0.99719787   -1001845.4            0   -1001814.1   -327.59556    2831075.7 
19.79 0.72106914312428 540.380375686522 0.978344579125926 2831075.71001785 -1001814.09991159
    1996   0.97834458   -1001844.9            0   -1001814.1   -340.23962    2831075.7 
19.8 0.721071313462516 540.380368661434 0.957659276500018 2831075.71001785 -1001814.09975057
    1997   0.95765928   -1001844.2            0   -1001814.1   -352.90421    2831075.7 
19.81 0.721073527267044 540.38031682119 0.935220447760808 2831075.71001785 -1001814.09957064
    1998   0.93522045   -1001843.5            0   -1001814.1   -365.62232    2831075.7 
19.82 0.721075402794019 540.380229814123 0.911121551403577 2831075.71001785 -1001814.09936253
    1999   0.91112155   -1001842.7            0   -1001814.1   -378.42501    2831075.7 
19.83 0.721076648758593 540.380119955777 0.885463917897767 2831075.71001785 -1001814.09916633
    2000   0.88546392   -1001841.9            0   -1001814.1   -391.33786    2831075.7 
19.84 0.721077130813145 540.380000276607 0.85835064082623 2831075.71001785 -1001814.0989651
    2001   0.85835064   -1001841.1            0   -1001814.1   -404.37786    2831075.7 
19.85 0.721076897288132 540.379882695391 0.829883387164865 2831075.71001785 -1001814.09876797
    2002   0.82988339   -1001840.2            0   -1001814.1   -417.55076    2831075.7 
19.86 0.72107615806014 540.379776615068 0.800162908758589 2831075.71001785 -1001814.09856899
    2003   0.80016291   -1001839.3            0   -1001814.1   -430.84911    2831075.7 
19.87 0.721075222780281 540.379688141854 0.769292845035883 2831075.71001785 -1001814.0983478
    2004   0.76929285   -1001838.3            0   -1001814.1   -444.25132    2831075.7 
19.88 0.721074415372563 540.379619999782 0.737385502342257 2831075.71001785 -1001814.0980996
    2005    0.7373855   -1001837.3            0   -1001814.1   -457.72181    2831075.7 
19.89 0.721073987847511 540.379572075394 0.704567767103126 2831075.71001785 -1001814.09781937
    2006   0.70456777   -1001836.2            0   -1001814.1   -471.21219    2831075.7 
19.9 0.721074056432943 540.379542408796 0.670985241595112 2831075.71001785 -1001814.09748645
    2007   0.67098524   -1001835.2            0   -1001814.1    -484.6635    2831075.7 
19.91 0.721074576818714 540.379528369946 0.636803187667446 2831075.71001785 -1001814.09713412
    2008   0.63680319   -1001834.1            0   -1001814.1   -498.00949    2831075.7 
19.92 0.721075364617732 540.379527736805 0.602203804696685 2831075.71001785 -1001814.09675037
    2009    0.6022038     -1001833            0   -1001814.1   -511.18034    2831075.7 
19.93 0.721076154843253 540.379539428693 0.567380421030325 2831075.71001785 -1001814.09635928
    2010   0.56738042   -1001831.9            0   -1001814.1   -524.10732    2831075.7 
19.94 0.72107668360926 540.379563734645 0.5325300434394 2831075.71001785 -1001814.09597623
    2011   0.53253004   -1001830.8            0   -1001814.1    -536.7268    2831075.7 
19.95 0.721076769234092 540.379601995091 0.497846202862682 2831075.71001785 -1001814.09561339
    2012    0.4978462   -1001829.7            0   -1001814.1   -548.98425    2831075.7 
19.96 0.721076370096642 540.379655821211 0.463513940221991 2831075.71001785 -1001814.09527421
    2013   0.46351394   -1001828.7            0   -1001814.1   -560.83712    2831075.7 
19.97 0.721075602920991 540.379726044535 0.429708012764791 2831075.71001785 -1001814.09494642
    2014   0.42970801   -1001827.6            0   -1001814.1    -572.2568    2831075.7 
19.98 0.721074715952221 540.379811656979 0.39659426651132 2831075.71001785 -1001814.09462851
    2015   0.39659427   -1001826.6            0   -1001814.1   -583.22895    2831075.7 
19.99 0.721074023830665 540.379909015133 0.364333088570812 2831075.71001785 -1001814.09432472
    2016   0.36433309   -1001825.5            0   -1001814.1   -593.75225    2831075.7 
20 0.721073821541527 540.380011538609 0.333083236780139 2831075.71001785 -1001814.09400833
    2017   0.33308324   -1001824.6            0   -1001814.1   -603.83693    2831075.7 
Loop time of 713.044 on 1 procs for 1200 steps with 243200 atoms

Performance: 1.454 ns/day, 16.506 hours/ns, 1.683 timesteps/s
100.0% CPU use with 1 MPI tasks x 1 OpenMP threads

MPI task timing breakdown:
Section |  min time  |  avg time  |  max time  |%varavg| %total
---------------------------------------------------------------
Pair    | 696.78     | 696.78     | 696.78     |   0.0 | 97.72
Neigh   | 0          | 0          | 0          |   0.0 |  0.00
Comm    | 2.322      | 2.322      | 2.322      |   0.0 |  0.33
Output  | 1.3788     | 1.3788     | 1.3788     |   0.0 |  0.19
Modify  | 8.3695     | 8.3695     | 8.3695     |   0.0 |  1.17
Other   |            | 4.196      |            |       |  0.59

Nlocal:    243200 ave 243200 max 243200 min
Histogram: 1 0 0 0 0 0 0 0 0 0
Nghost:    152304 ave 152304 max 152304 min
Histogram: 1 0 0 0 0 0 0 0 0 0
Neighs:    2.03608e+07 ave 2.03608e+07 max 2.03608e+07 min
Histogram: 1 0 0 0 0 0 0 0 0 0

Total # of neighbors = 20360800
Ave neighs/atom = 83.7204
Neighbor list builds = 0
Dangerous builds = 0
#run 8000
#unfix 2
#run 12000
###################################################
#
#
Total wall time: 0:20:15
